8000
Atoms. Timestep: 10000000
1 -7.66499 2.2143 7.48364
1 -8.03876 2.79108 8.17213
1 -8.27822 1.86966 8.30888
1 -7.47295 2.0661 8.75888
1 -6.79916 2.8119 8.71505
1 -6.56061 2.295 7.88363
1 -6.51213 1.67768 8.52992
1 -6.34324 0.97496 9.13074
1 -6.82101 1.454 9.83301
1 -5.8981 1.82837 9.76761
1 -4.69074 9.18404 6.96667
1 -4.5304 10.0714 7.30467
1 -4.85088 10.3699 6.46335
1 -5.14956 -10.1996 7.0433
1 -5.107 -10.1256 7.95596
1 -5.96526 -10.5311 8.15205
1 -6.74996 10.347 7.70352
1 -6.03747 10.599 7.05236
1 -5.6537 9.81129 6.5876
1 -5.76902 10.2075 5.72052
1 -0.0387283 -9.21891 5.65499
1 -0.91496 -8.83017 5.87641
1 -0.730903 -9.56615 6.38805
1 -1.07643 -10.3776 6.5575
1 -1.06941 -9.99746 7.4302
1 -0.49727 -10.3242 8.14412
1 -0.499674 10.0689 8.6785
1 -1.02854 -10.4593 9.03569
1 -0.236806 -9.82365 9.15893
1 0.366799 -9.6797 9.90701
1 -6.2423 0.381838 -6.16133
1 -6.17565 0.0766144 -7.07534
1 -7.03486 0.0565917 -6.71818
1 -6.40885 -0.672467 -6.34738
1 -6.80785 -1.15955 -7.05396
1 -7.69847 -1.07835 -7.24855
1 -7.83176 -0.192425 -7.57473
1 -8.34041 -0.398506 -8.38418
1 -9.2405 -0.290818 -8.49129
1 -9.16552 -0.376398 -9.49195
1 0.352783 -7.59021 8.45654
1 0.894006 -7.56167 9.20162
1 0.543264 -7.89667 10.09
1 0.588119 -6.9026 9.96268
1 -0.255421 -7.10943 10.2918
1 -1.00338 -6.7645 -10.5115
1 -1.59869 -6.12652 10.3935
1 -2.47032 -5.92839 10.1123
1 -2.33969 -5.89786 9.10496
1 -3.11204 -5.35176 8.94585
1 3.42107 -2.37084 -4.50444
1 3.99099 -1.81793 -5.13985
1 4.92275 -1.76178 -5.48293
1 4.93255 -2.44459 -4.79466
1 4.37505 -1.942 -4.11113
1 5.13634 -1.9103 -3.44162
1 4.48968 -2.51397 -3.13072
1 3.96703 -3.32367 -3.45672
1 4.58928 -4.09924 -3.54826
1 4.4102 -4.9104 -3.09661
1 4.31681 -6.197 -2.1696
1 4.98633 -5.76412 -2.65076
1 5.48278 -6.56966 -2.39934
1 6.43704 -6.51448 -2.09212
1 6.70302 -7.53161 -1.95547
1 7.43113 -7.82105 -1.42324
1 7.36427 -6.84874 -1.31601
1 7.5309 -6.9384 -2.21795
1 8.28676 -6.878 -1.65161
1 9.01158 -6.31377 -2.05985
1 7.67993 4.47977 5.87984
1 7.69813 5.08121 6.6335
1 7.05542 5.71739 6.33074
1 8.04025 6.03538 6.34125
1 8.77902 5.79445 6.84436
1 9.07983 6.28705 6.11575
1 9.57245 5.87571 5.37041
1 10.0246 5.32503 4.59619
1 9.49719 5.60964 3.84525
1 9.28937 6.5011 4.09307
1 -4.49911 2.73911 -9.93754
1 -4.11508 3.2571 10.6003
1 -3.50144 3.93711 10.3736
1 -2.55667 3.90641 -10.5373
1 -2.82569 3.65695 -9.54684
1 -2.94283 2.91244 -10.2625
1 -2.52415 2.2828 10.3447
1 -2.64601 1.47712 -10.4175
1 -1.81391 1.15101 -10.3123
1 -1.57822 1.73887 10.1911
1 -5.99906 0.744472 3.25421
1 -5.20862 1.24355 3.49104
1 -4.69965 0.505784 4.10024
1 -3.94816 1.03948 4.01933
1 -4.28378 1.07666 3.11128
1 -3.34808 0.996336 3.0582
1 -2.51472 0.588627 2.79253
1 -2.1048 1.26004 3.29663
1 -2.55178 0.645139 3.90325
1 -1.82919 0.4545 4.50066
1 5.6497 -2.47537 -6.38307
1 5.86716 -2.67505 -5.41278
1 5.68626 -3.51222 -5.77853
1 5.37183 -3.32737 -4.91283
1 4.52347 -3.34345 -4.37995
1 4.98728 -4.22358 -4.534
1 5.68359 -4.88875 -4.42277
1 6.0295 -4.09101 -4.69764
1 6.64137 -3.80305 -5.29215
1 7.26288 -3.20312 -4.81247
1 -8.63643 5.2652 7.82346
1 -8.77257 6.17314 8.18627
1 -9.38984 5.82706 8.80112
1 -9.46771 6.38798 9.53464
1 -9.47238 5.46396 9.7377
1 -9.15051 4.86391 10.3912
1 -9.23775 5.87287 10.612
1 -9.15702 6.8565 10.3923
1 -8.18243 6.85878 10.3027
1 -8.26446 6.89753 9.32288
1 -1.93484 6.39683 -3.28525
1 -2.8621 6.14617 -3.15108
1 -3.13785 7.09811 -3.18506
1 -2.69232 7.09253 -2.29778
1 -2.26468 7.72684 -2.96547
1 -3.07743 8.13024 -2.61698
1 -4.02765 8.44258 -2.43122
1 -4.79269 8.97073 -2.79144
1 -4.47642 8.75612 -3.65958
1 -4.86136 8.39339 -4.44828
1 -9.41075 -10.2773 -4.29133
1 -8.93149 -9.60636 -3.90243
1 -8.92378 -9.7813 -2.91651
1 -9.22572 -8.927 -2.51872
1 -9.96438 -9.46733 -2.21159
1 10.3478 -9.46575 -2.44184
1 9.58784 -10.1107 -2.46186
1 10.0066 -10.4962 -3.27368
1 10.1086 -9.8354 -4.02324
1 -10.3289 -9.51679 -4.44326
1 6.15937 -9.09067 -2.76574
1 6.72612 -9.7517 -3.03605
1 7.72209 -9.60344 -3.17266
1 7.59528 -10.4872 -3.4619
1 7.09686 -9.84075 -3.95813
1 7.8764 -9.73699 -4.53003
1 8.69392 -9.38082 -4.13321
1 9.20508 -9.62394 -3.36411
1 8.58005 -9.11745 -2.8228
1 7.96954 -8.59314 -3.39623
1 10.5997 -7.72683 -5.54072
1 -10.4404 -7.28246 -4.72405
1 -9.72172 -7.07023 -4.24843
1 -9.15948 -7.55464 -3.60298
1 -9.95618 -8.07966 -3.60058
1 -9.93674 -9.00916 -3.35717
1 10.4295 -8.91073 -3.40129
1 9.55585 -8.57632 -3.19063
1 9.21343 -8.32651 -3.99777
1 8.33022 -7.84166 -3.95065
1 -10.1987 4.42072 7.86194
1 10.3459 4.04148 7.33586
1 10.5085 3.60453 8.17743
1 10.3046 3.45689 9.13475
1 10.3682 3.88649 9.95566
1 9.4294 4.01771 10.1709
1 9.44197 4.12918 9.21441
1 9.46121 3.41674 8.52811
1 10.0164 2.68566 8.48579
1 10.6273 2.62423 7.71968
1 3.72337 8.65261 -7.05674
1 4.70303 8.7081 -7.28589
1 4.61902 9.32147 -6.48399
1 4.70031 9.7661 -7.28299
1 4.06957 9.861 -8.02237
1 4.20772 9.92981 -8.94695
1 5.16898 9.83172 -8.94764
1 5.59606 -10.5559 -9.21024
1 5.4133 10.4495 -10.1005
1 4.48755 10.0278 -10.1147
1 8.42 3.49522 -0.10231
1 9.21657 3.26148 -0.554682
1 9.50976 3.78774 0.207939
1 10.2224 3.15539 0.00664661
1 -10.0666 2.82944 0.148047
1 -10.2294 3.15151 1.01416
1 -9.74135 3.8683 1.44434
1 -8.89773 3.40966 1.64332
1 -8.44754 3.76199 0.868282
1 -7.65682 3.59744 1.40886
1 6.97961 -6.63393 10.2678
1 6.63427 -5.82374 -10.5633
1 7.51116 -5.56234 10.3822
1 7.76307 -4.71617 10.1398
1 7.18472 -3.91154 10.4009
1 7.72122 -3.72927 9.6765
1 7.85039 -2.79585 9.81832
1 8.78073 -2.70979 9.72573
1 8.74502 -3.59423 9.41456
1 9.4965 -3.78921 9.93881
1 9.57405 -3.27526 4.30765
1 9.89364 -2.7444 3.53786
1 9.39113 -2.13744 4.09031
1 8.70233 -2.69029 4.50943
1 7.86992 -3.15499 4.24172
1 7.6403 -3.59817 3.45494
1 7.20489 -3.76644 2.58424
1 6.48746 -4.15727 2.0795
1 6.69286 -4.31932 1.17032
1 6.49617 -4.31348 0.235815
1 1.09549 -7.26018 5.38366
1 1.3789 -6.67332 6.09398
1 2.09325 -7.1586 6.4326
1 2.92515 -7.52318 6.16736
1 3.51258 -8.00562 6.75703
1 3.68943 -7.15432 7.01659
1 3.09939 -7.27049 7.80223
1 3.02518 -7.63846 8.67104
1 3.61787 -7.16536 9.2341
1 3.68092 -6.79926 10.1061
1 -10.6275 -9.462 8.17511
1 10.5274 -8.67819 8.74394
1 10.1378 -8.02261 8.2277
1 9.23554 -8.42489 8.29642
1 9.11337 -8.93433 9.0951
1 9.42656 -8.03645 9.26256
1 8.48016 -7.85343 9.19039
1 8.29604 -7.81206 8.25109
1 7.58456 -7.6313 8.83401
1 7.0273 -7.76525 9.58179
1 -5.02763 -4.9025 6.83172
1 -5.69049 -4.50147 6.29468
1 -5.05714 -4.39517 5.63354
1 -5.17299 -3.61571 4.93617
1 -5.79093 -3.95093 4.25837
1 -5.76339 -2.94544 4.22045
1 -6.30752 -3.29668 4.92138
1 -6.7952 -3.56562 5.6503
1 -6.64839 -3.668 6.60816
1 -6.88221 -2.74994 6.52646
1 9.7628 1.47659 8.85233
1 10.1328 0.926261 9.53071
1 9.85731 0.0756584 9.98646
1 9.67658 0.889057 10.4673
1 8.85423 1.16458 -10.2838
1 8.78747 1.64952 10.0984
1 7.96427 1.09694 9.95982
1 7.93348 1.70608 -10.5546
1 7.16499 1.96107 10.191
1 6.64334 1.37825 9.67292
1 5.61456 6.88817 7.53308
1 5.19966 7.56979 8.01444
1 4.71037 8.05149 7.38289
1 4.53376 8.85377 7.87501
1 3.59331 9.04619 7.73744
1 3.02287 8.92483 7.01891
1 3.88958 9.08294 6.53016
1 3.72262 9.79563 7.07336
1 3.23897 10.0954 7.79678
1 4.08699 9.96813 8.32955
1 7.54341 0.643201 -6.71351
1 7.15036 1.40139 -7.17751
1 7.10682 0.517699 -7.67673
1 7.96589 0.49876 -8.019
1 8.2175 1.09129 -7.39204
1 9.12614 1.47598 -7.00532
1 9.65304 1.87577 -6.2643
1 10.4062 2.15154 -6.78369
1 -10.4197 1.86233 -5.99714
1 -9.64804 1.83691 -5.38153
1 -1.291 10.6087 -9.59449
1 -1.45225 10.1693 -10.4461
1 -1.26712 -10.303 10.3116
1 -0.335922 -10.5871 10.2306
1 0.582296 10.3089 10.0531
1 0.258281 9.40086 10.0088
1 0.542651 8.981 -10.4372
1 -0.135595 8.47268 10.4467
1 -0.560939 9.1001 -10.2276
1 -0.804714 9.62084 -9.45657
1 9.86005 6.96906 0.886701
1 9.70336 7.49549 0.0850547
1 8.8558 7.10794 -0.392706
1 9.23578 6.52453 0.223115
1 8.64409 6.75617 0.940203
1 7.96924 6.34045 1.52835
1 8.41839 5.82255 0.905144
1 8.38923 4.93072 1.13919
1 9.32285 4.9943 1.00328
1 9.10769 5.40648 0.13418
1 9.44411 4.19787 7.9846
1 9.54921 3.3423 7.48
1 8.85504 2.89298 7.02184
1 8.53145 3.66575 7.39643
1 8.09654 4.53114 7.44072
1 8.90414 4.49261 6.93416
1 9.6105 5.18488 6.85772
1 9.75961 5.50839 7.74952
1 9.90626 6.31757 7.16157
1 9.18977 6.99353 7.01063
1 9.97713 -9.7457 -10.1059
1 9.36629 -9.29522 10.5379
1 9.42267 -10.194 10.4107
1 8.81361 -9.70213 9.77392
1 7.95161 -9.29129 9.66079
1 7.0432 -9.32063 9.26214
1 7.25449 -9.72279 8.37704
1 7.72374 -10.3491 8.98044
1 7.18609 10.2967 8.33232
1 8.10062 10.1688 8.03507
1 -3.4231 -1.4331 -3.45098
1 -3.16196 -2.32284 -3.69732
1 -3.96757 -2.07874 -4.25655
1 -4.44425 -2.31429 -5.07192
1 -5.09669 -2.03997 -4.34944
1 -5.69351 -1.48705 -3.82528
1 -5.86177 -2.10904 -3.04513
1 -5.37978 -2.71768 -3.62728
1 -5.63712 -3.2926 -2.91296
1 -5.41434 -4.10799 -2.44905
1 1.46048 -7.43041 10.1394
1 1.83598 -8.23299 10.514
1 0.978411 -8.1262 -10.1763
1 0.220365 -7.58129 -9.92685
1 0.881261 -7.19049 -9.35666
1 1.28563 -6.4204 -8.95265
1 1.39216 -6.0689 -9.83166
1 1.67291 -6.22932 10.5785
1 0.977672 -6.86862 -10.305
1 0.60582 -6.03439 -10.5767
1 10.0588 -0.311991 5.61255
1 10.3624 -1.25772 5.36155
1 9.97756 -1.69286 6.17565
1 10.4088 -2.55337 6.43756
1 -10.0799 -2.0211 6.35519
1 -10.3198 -2.42785 5.52925
1 -9.74321 -2.80759 4.92186
1 -9.34387 -2.40621 4.17069
1 -9.02581 -1.90114 4.92999
1 -10.019 -1.72111 4.67574
1 -0.615718 -9.34879 -5.98171
1 -1.47866 -8.96914 -5.83492
1 -1.7513 -9.41493 -6.59895
1 -2.33461 -9.25537 -7.31882
1 -1.41717 -9.01148 -7.49592
1 -0.726195 -9.44575 -7.00785
1 -0.56461 -8.5208 -6.98374
1 -0.213353 -7.93105 -7.71029
1 0.0863017 -7.08346 -7.40076
1 -0.682488 -7.35595 -6.84746
1 -5.66225 6.74124 8.35364
1 -5.13535 5.91471 8.03995
1 -4.85783 5.05488 8.36865
1 -5.25843 4.20346 8.50864
1 -5.58892 4.27543 9.3942
1 -5.26076 3.49857 9.78816
1 -4.84269 2.63319 9.78516
1 -4.84635 2.98006 8.90036
1 -4.16774 2.981 8.25439
1 -3.70041 3.28381 7.43013
1 5.10383 5.64448 10.3653
1 5.32502 5.19252 -10.0792
1 4.93595 6.05171 -9.86118
1 5.03062 6.936 -10.0432
1 5.84439 7.53555 -10.0353
1 5.70867 7.51818 10.2745
1 6.03228 6.98227 9.48824
1 6.6177 6.83362 10.2607
1 6.94546 7.12897 -10.1581
1 7.6339 7.61528 -10.6208
1 8.10332 7.13401 7.09061
1 7.71387 6.56135 7.72169
1 7.15115 7.21275 7.38773
1 6.37876 7.38382 7.97696
1 6.75619 7.01891 8.80495
1 7.39503 7.61164 9.13109
1 7.7708 6.74124 8.92459
1 7.58599 6.72277 9.87439
1 8.47604 7.02486 10.0486
1 9.44597 7.19843 9.89635
1 5.59167 8.90231 -9.54629
1 6.19666 9.63269 -9.70683
1 7.15135 9.79071 -9.57879
1 7.06055 -10.5689 -9.9278
1 6.62808 10.247 10.5211
1 7.16336 -10.5372 9.94986
1 6.54716 -10.611 9.24393
1 6.73127 9.78419 9.60009
1 7.62216 9.8679 9.11824
1 7.62339 9.2609 8.3616
1 -2.39694 -3.06217 2.03237
1 -2.92787 -3.67607 1.41358
1 -3.1587 -3.73824 2.3784
1 -3.39179 -2.8986 2.75309
1 -4.18371 -3.46221 3.0332
1 -3.95829 -3.91099 3.85495
1 -4.34311 -4.65997 4.30223
1 -4.16878 -5.51379 3.97346
1 -3.75911 -5.4327 3.08562
1 -4.18956 -6.26709 3.1643
1 10.0957 -4.65318 2.30652
1 9.60517 -5.03423 3.0387
1 9.09368 -5.14515 2.22976
1 9.52659 -5.90474 1.77459
1 9.55673 -6.88533 1.78397
1 8.97226 -6.55291 1.15651
1 8.77049 -7.28764 0.549718
1 9.4626 -7.83447 0.113062
1 9.31614 -8.12647 0.992313
1 8.3022 -8.18559 0.921653
1 9.47327 2.65436 9.34385
1 8.84808 2.76846 10.0085
1 8.35517 2.99488 9.22517
1 7.63728 2.89522 9.93099
1 7.77241 3.78648 9.61151
1 7.85729 4.71303 9.39746
1 8.55809 4.48529 9.96082
1 8.42248 3.6366 10.5489
1 8.46327 2.78055 -10.2552
1 7.8421 2.17206 -9.7568
1 -4.62613 3.65979 7.44716
1 -4.24631 4.18584 8.1661
1 -3.61526 4.70781 8.68023
1 -3.74932 5.53729 8.2832
1 -3.58313 6.49195 8.20741
1 -3.281 6.56554 7.28603
1 -2.85654 6.07279 6.55559
1 -2.11166 6.20107 5.96819
1 -1.77329 6.16754 6.86513
1 -1.13317 6.83512 6.76321
1 6.96606 -8.06909 6.49356
1 6.92513 -8.77071 7.19371
1 7.48066 -8.97544 6.41476
1 7.93646 -9.10179 7.33026
1 7.48541 -8.52844 7.97575
1 8.1079 -8.75933 8.66116
1 8.40988 -9.63677 8.61085
1 9.42264 -9.66402 8.50017
1 8.93956 -10.4768 8.39342
1 9.17734 10.0576 7.78859
1 3.66372 0.998277 -2.46604
1 2.81387 1.14495 -2.1008
1 3.19682 1.31672 -1.19026
1 2.60833 1.96955 -0.967664
1 1.70827 1.91261 -0.640208
1 1.21364 2.71087 -1.04432
1 0.860193 3.58891 -1.40665
1 0.387957 2.77943 -1.64824
1 0.948514 3.10972 -2.39369
1 0.330194 3.78663 -2.18226
1 -6.87216 0.0917845 -0.299135
1 -6.35322 0.875833 -0.167923
1 -5.89648 0.122855 -0.448918
1 -6.38349 -0.200545 -1.2324
1 -6.55782 0.710658 -1.06505
1 -5.65342 0.67409 -1.43618
1 -5.18505 0.845173 -0.601943
1 -4.66234 1.27333 -1.34705
1 -4.78258 1.94038 -0.637015
1 -5.63894 1.68519 -0.963852
1 -2.96291 9.90339 -8.87217
1 -2.28034 10.5693 -8.58401
1 -1.93961 -9.90769 -8.20021
1 -2.10473 -9.00995 -8.42853
1 -1.21231 -8.47956 -8.58456
1 -2.02291 -8.36111 -9.13759
1 -2.28248 -8.00385 -8.30626
1 -2.26714 -7.14797 -7.89596
1 -1.8057 -7.26952 -7.04957
1 -1.43307 -8.00047 -7.49373
1 1.62772 7.96727 -2.28446
1 2.26849 8.23262 -1.62605
1 3.02691 8.11386 -2.15258
1 3.78317 8.0831 -1.59111
1 3.8817 8.81136 -2.1954
1 4.50499 8.32481 -2.70424
1 4.51679 8.61096 -3.56928
1 3.74811 9.1142 -3.35206
1 4.40675 9.74141 -3.63875
1 4.76327 9.29421 -2.8207
1 3.44251 -6.33468 -1.64513
1 3.01966 -5.71914 -1.00001
1 3.97934 -5.73897 -0.914131
1 3.99535 -6.04926 -0.0114669
1 3.36673 -6.22071 0.74551
1 3.08334 -7.13035 0.859451
1 2.08334 -7.3123 0.556358
1 2.13012 -7.04757 1.43618
1 1.12479 -7.13509 1.57942
1 1.38897 -6.24137 1.33501
1 2.15728 -5.55396 -3.24216
1 1.20902 -5.80174 -3.09093
1 1.14452 -4.90381 -3.37834
1 0.260798 -5.25583 -3.57408
1 0.0935857 -5.81413 -2.87271
1 -0.246287 -6.5241 -2.22006
1 -0.69253 -7.40124 -2.25124
1 -1.12217 -6.88366 -2.89536
1 -1.72289 -7.68565 -3.1388
1 -2.53407 -7.2144 -3.07544
1 3.6824 -5.29801 -8.74339
1 3.02067 -5.442 -9.33508
1 3.17429 -5.43247 -10.3387
1 3.60217 -5.42361 10.0415
1 4.21116 -5.26688 -10.4441
1 4.59325 -4.83868 10.0969
1 4.00225 -4.71004 9.35738
1 3.52159 -4.36394 8.57538
1 4.18214 -3.74892 8.31083
1 4.63489 -4.54579 8.51504
1 10.1944 -0.909503 9.21817
1 10.6099 -0.499576 9.97899
1 9.8634 -0.821764 10.5284
1 9.10732 -0.317793 -10.4057
1 8.2608 -0.721804 -10.6035
1 8.17678 -1.07867 9.77468
1 8.4162 -0.146071 9.89985
1 8.26238 0.337444 -10.5342
1 8.11213 0.295185 -9.61794
1 8.10705 1.17623 -9.07759
1 3.01333 -5.33533 3.45076
1 2.78464 -5.9293 2.76729
1 2.40485 -5.17528 2.27867
1 1.83498 -6.00655 2.45082
1 0.905464 -5.93205 2.26737
1 0.782742 -6.67293 2.83567
1 0.432875 -6.57046 3.68632
1 -0.184172 -7.0952 3.21007
1 -0.928234 -6.4123 3.34781
1 -1.53436 -7.0913 3.11876
1 4.14949 3.40269 -7.67785
1 4.60836 3.85258 -8.42049
1 4.54761 4.78806 -8.2864
1 4.54985 5.63789 -7.79482
1 4.19837 6.51469 -7.73486
1 3.90316 6.05864 -6.9125
1 4.3181 5.26625 -6.50309
1 4.42863 6.00824 -5.84411
1 4.65003 6.89985 -5.78781
1 5.49527 7.00076 -6.1861
1 2.01298 8.31994 8.32805
1 2.28303 9.00126 7.72113
1 2.24436 9.53391 6.944
1 1.86065 9.31054 6.09141
1 1.15041 9.78033 5.74331
1 1.20609 10.0671 4.83866
1 2.04148 10.2474 4.3687
1 2.95597 10.1322 4.42955
1 2.47274 9.783 5.18897
1 2.92383 9.73871 6.04522
1 -8.49475 8.57421 6.02892
1 -8.97541 8.04074 5.38522
1 -9.54571 7.31419 5.45019
1 -9.05277 7.06061 4.53616
1 -9.32071 6.21957 3.96954
1 -10.1864 6.58512 4.15329
1 -10.3698 6.8319 5.0401
1 10.0889 7.24055 4.87535
1 9.90735 7.64816 5.69115
1 9.50701 8.41006 5.24854
1 -8.84194 0.868504 -6.87104
1 -9.34354 1.56648 -6.35572
1 -8.84916 2.31638 -6.75067
1 -9.63092 2.39051 -7.27968
1 -9.78393 2.73111 -6.43416
1 -9.90307 3.59229 -6.93508
1 -9.06734 3.71157 -6.57372
1 -8.22719 4.16842 -6.42827
1 -7.49135 3.70588 -6.10746
1 -7.00236 4.50027 -5.95634
1 -5.31818 -4.36021 -0.0181709
1 -5.05768 -5.09529 0.424868
1 -5.70195 -5.84036 0.511248
1 -6.03486 -5.46712 -0.317672
1 -6.7847 -5.963 -0.0598793
1 -6.02807 -6.51993 -0.321558
1 -5.59372 -6.31936 -1.14504
1 -4.84899 -6.54828 -0.500744
1 -3.87832 -6.41976 -0.74258
1 -3.1246 -6.83539 -1.08515
1 -2.11293 6.41189 -5.12356
1 -2.63642 5.72741 -5.63866
1 -1.98517 5.3828 -5.00157
1 -2.28439 4.65174 -4.49079
1 -2.0932 3.74941 -4.18075
1 -2.34925 3.66713 -5.10779
1 -1.79451 3.91733 -5.94167
1 -1.0995 4.48767 -6.1321
1 -1.89363 5.00816 -6.18867
1 -1.51156 5.39592 -7.00465
1 7.07677 6.87545 -8.01755
1 8.0647 6.8239 -8.02632
1 8.0966 6.8972 -8.95456
1 8.97338 7.2642 -9.21225
1 9.60912 6.50324 -9.03139
1 10.0135 6.91082 -8.26787
1 9.12365 6.88318 -7.83287
1 8.64004 7.70654 -8.10617
1 7.91012 8.28201 -8.25346
1 6.97251 8.26558 -8.21599
1 -7.44493 4.37773 -9.89717
1 -8.38503 4.4346 -9.59661
1 -8.63663 4.01232 -10.3952
1 -9.59618 4.27002 -10.0573
1 -10.0953 3.61583 -9.66965
1 -10.4204 2.7204 -9.33978
1 -9.925 1.9404 -9.26843
1 10.5586 1.58719 -8.87316
1 -10.4536 2.28085 -8.1892
1 -10.527 3.06051 -7.57404
1 8.68 5.0305 5.25773
1 8.52931 6.03064 5.11634
1 8.84793 6.89352 5.08339
1 9.11213 7.52223 4.37993
1 8.5599 7.93753 5.09552
1 7.88592 8.58074 4.80934
1 7.89998 8.3303 5.7976
1 8.72721 7.95731 6.16559
1 9.35825 8.08233 6.87287
1 8.56417 8.40907 7.33057
1 4.01778 -7.88915 10.1742
1 4.80088 -8.38214 10.2892
1 4.67231 -8.33964 -10.0215
1 5.3834 -8.77714 -9.61667
1 5.65106 -8.01729 -10.2131
1 5.55009 -7.12654 -10.1283
1 5.8728 -6.48537 10.4789
1 6.17651 -6.13439 9.65132
1 5.50412 -5.64788 10.1319
1 4.57351 -5.84862 10.0138
1 4.28833 -9.19565 -9.2415
1 4.37561 -10.1521 -8.93115
1 4.30449 -10.2121 -7.95638
1 4.78078 -10.4389 -7.15908
1 4.53636 -9.60685 -6.7044
1 3.81789 -8.98971 -6.31799
1 3.47918 -9.79723 -6.78004
1 3.90813 -10.2969 -6.0892
1 3.99736 10.0068 -5.93735
1 3.31341 10.257 -5.29922
1 8.49982 5.84561 3.2882
1 8.004 5.00174 3.36062
1 8.60315 4.87096 4.12656
1 9.20632 4.7274 3.40253
1 9.79064 4.33022 2.74417
1 9.59351 3.5259 2.31387
1 9.39525 4.25289 1.7296
1 10.2988 4.69675 1.82617
1 10.5972 3.78273 1.96322
1 10.355 3.99159 0.97086
1 -10.0177 -7.21895 -7.37326
1 -9.4338 -7.2768 -8.07623
1 -9.07173 -6.52023 -8.51663
1 -8.36759 -6.03845 -8.81798
1 -8.33479 -6.38185 -9.80285
1 -8.20155 -7.10157 -9.20001
1 -7.63756 -7.79282 -8.84196
1 -7.06301 -8.50935 -8.32029
1 -6.86836 -9.3919 -8.67745
1 -6.62629 -9.35387 -7.76793
1 7.91528 -6.42719 -7.40297
1 7.154 -6.70405 -6.81314
1 6.31915 -6.1726 -6.85653
1 5.44505 -6.02013 -7.40618
1 6.26644 -5.53482 -7.58479
1 6.42183 -4.52835 -7.60627
1 5.45617 -4.37767 -7.68437
1 5.15366 -5.11261 -7.13091
1 5.41065 -4.35988 -6.59985
1 5.61392 -4.5508 -5.67312
1 3.37657 -5.0059 1.95965
1 3.59257 -5.98705 1.97674
1 4.29477 -6.58957 2.29262
1 4.96529 -7.28718 2.05597
1 4.09903 -7.52683 1.70229
1 4.38806 -8.08698 2.35354
1 3.80716 -8.62595 1.79458
1 4.69622 -8.90865 1.86499
1 4.17716 -9.534 2.46542
1 4.08515 -10.4612 2.26926
1 -8.40867 -0.366597 8.37519
1 -9.23499 -0.838617 8.4481
1 -9.16919 -1.70939 8.10597
1 -9.64532 -2.62945 8.15362
1 -9.18778 -3.24819 7.63399
1 -8.85416 -4.06567 7.9989
1 -9.21638 -4.93361 8.45335
1 -9.87649 -4.48794 9.02519
1 -9.94239 -3.84656 8.25762
1 10.4742 -4.07949 8.57236
1 -5.79868 4.30849 -4.83742
1 -5.41005 3.5079 -4.91295
1 -4.87831 3.23153 -4.13302
1 -4.40213 3.87428 -4.64063
1 -3.84932 3.96625 -3.88667
1 -3.34892 4.21949 -4.68246
1 -3.90871 4.92491 -5.15673
1 -3.6523 4.15349 -5.73799
1 -2.71807 4.19028 -6.02503
1 -2.73095 3.25836 -5.98195
1 4.64233 6.0871 9.32722
1 3.72634 6.27813 9.44897
1 3.80125 5.82299 8.65722
1 3.07455 6.13925 8.11006
1 2.64761 6.4415 8.94511
1 3.41383 6.98855 8.76406
1 2.91632 7.67339 8.38121
1 3.22686 7.0638 7.72051
1 2.32999 6.87784 7.95194
1 2.30469 6.35758 7.1858
1 5.31839 -9.32711 -8.69799
1 5.18692 -9.62712 -7.80471
1 5.9417 -9.06722 -7.87561
1 5.76406 -9.17202 -6.93072
1 6.61218 -9.55456 -6.83012
1 5.96403 -10.2101 -7.11713
1 6.50992 10.2317 -6.97864
1 5.80707 10.0986 -7.66061
1 5.15507 -10.6306 -8.19416
1 6.0092 -10.1947 -8.19722
1 0.137424 6.13528 -4.07835
1 0.438171 6.98675 -4.2696
1 0.787936 6.28826 -4.85271
1 1.33424 7.05287 -5.046
1 1.04524 7.91651 -4.88405
1 0.714118 8.71045 -5.3801
1 0.662479 8.4217 -6.33484
1 1.09319 8.04434 -7.12947
1 1.88954 7.86541 -7.68869
1 1.85889 7.42202 -6.82641
1 1.57343 5.43461 -3.58705
1 1.19989 5.94981 -2.87021
1 1.16328 5.9768 -1.93995
1 0.365869 5.45518 -1.60296
1 -0.516588 5.16935 -1.39422
1 -0.0100846 4.41484 -1.39773
1 -0.127499 3.82445 -0.660178
1 -0.66395 3.30964 -1.27379
1 -1.05164 2.47024 -1.13643
1 -1.77899 2.95203 -0.85854
1 -1.97499 0.741346 -0.484184
1 -1.19537 0.452242 -1.0473
1 -0.529778 1.0635 -0.655989
1 -0.722134 0.368016 -0.0417707
1 -0.021673 -0.0174468 0.48699
1 0.401626 -0.798035 0.897923
1 -0.100064 -0.313226 1.56327
1 -0.975207 -0.361453 2.04501
1 -0.608789 -0.907518 2.68346
1 -0.414806 -0.108528 3.10016
1 -7.51384 -0.970475 9.05426
1 -6.77774 -1.62771 9.04103
1 -5.96205 -1.81691 9.48298
1 -6.30255 -1.2818 10.235
1 -5.6648 -1.79652 -10.6002
1 -6.24289 -2.50762 10.2635
1 -5.34198 -2.62219 9.97818
1 -5.60748 -2.88904 9.05536
1 -5.90972 -3.67486 8.55256
1 -5.2917 -4.31029 8.91489
1 0.843759 4.11332 9.15122
1 1.1287 4.52725 9.94923
1 0.30096 4.85891 9.64785
1 -0.254445 4.49287 9.03953
1 -0.333607 3.53157 8.98274
1 -1.06276 2.88179 9.07894
1 -0.708959 2.09518 9.49082
1 0.0850887 2.43429 9.10534
1 0.513994 1.72583 8.62659
1 1.35887 1.32987 8.92137
1 -1.94114 -0.827159 -6.83803
1 -1.67948 -0.364513 -7.6617
1 -1.00683 -0.817761 -8.12957
1 -1.22765 0.0592224 -8.50455
1 -0.335661 0.152929 -8.38581
1 0.0191186 -0.704224 -8.46296
1 -0.370927 -1.53255 -8.69943
1 -0.670795 -1.49422 -9.57582
1 -1.48486 -1.08043 -9.76065
1 -1.54469 -0.968489 10.5776
1 7.58996 -8.01549 -6.84362
1 7.28534 -7.50302 -6.05314
1 8.19181 -7.83977 -5.9805
1 8.53694 -7.35002 -5.23381
1 8.85783 -6.83843 -4.48313
1 9.72792 -7.25888 -4.45653
1 10.2388 -7.79568 -3.69075
1 10.2672 -7.36086 -2.80712
1 10.6178 -6.83798 -3.58576
1 9.69235 -6.4933 -3.31099
1 10.5281 1.66792 4.8085
1 10.3197 2.17008 4.00408
1 -10.5218 1.54989 3.43116
1 -9.79061 0.93779 2.99086
1 -10.1676 1.2219 2.09751
1 -9.79577 0.824374 1.31724
1 -9.21748 1.46855 1.59251
1 -8.4996 2.06688 1.56036
1 -8.07497 2.74261 1.05122
1 -8.5243 2.88431 0.205186
1 -9.67213 8.71762 3.40182
1 -10.494 9.22331 3.60798
1 -10.0031 9.05852 4.38029
1 10.6044 8.52971 4.77583
1 10.2173 9.39911 4.53355
1 9.90826 10.204 4.15897
1 -10.3439 10.0317 4.27445
1 -9.36719 10.2098 4.15219
1 -9.14054 -10.3283 4.71228
1 -8.31185 10.529 4.61027
1 0.886128 -8.6656 8.3099
1 -0.0613864 -8.80525 8.48524
1 -0.147731 -8.26569 9.2522
1 -0.403606 -8.3702 10.2215
1 -0.00153271 -9.08002 -10.5593
1 -0.711052 -9.67977 -10.2535
1 -0.759883 -9.40303 10.0196
1 -1.35326 -8.83264 10.5977
1 -1.98525 -9.29927 10.0005
1 -2.79277 -9.7755 9.78569
1 7.66462 8.02778 -4.3817
1 7.26815 8.39271 -5.16105
1 7.71664 9.21366 -5.34472
1 8.60795 9.43125 -4.97223
1 8.08916 9.05086 -4.25901
1 7.91757 9.98371 -4.17686
1 8.54463 10.2184 -3.45211
1 9.2804 10.0485 -2.77959
1 9.81393 9.49835 -2.24809
1 10.3527 9.39448 -1.45534
1 -6.15727 -7.31878 4.55352
1 -6.71263 -6.63239 4.23969
1 -6.50552 -5.81227 3.9527
1 -6.88407 -5.69167 4.78821
1 -6.69727 -6.36071 5.43216
1 -7.31778 -7.04196 5.18815
1 -7.52914 -7.99984 5.05856
1 -6.96982 -8.08601 5.83195
1 -6.1209 -8.10792 5.33474
1 -5.33249 -7.63562 5.37752
1 -7.24349 1.97125 -7.72387
1 -7.30766 2.07445 -8.69368
1 -6.63792 1.41826 -8.50901
1 -5.94065 0.778771 -8.20627
1 -5.35787 0.953075 -7.44814
1 -5.18651 1.70684 -8.02444
1 -4.52149 2.50206 -7.87029
1 -4.00124 2.91194 -8.53629
1 -3.42464 2.51108 -9.22626
1 -3.30947 1.57786 -9.48777
1 -1.49409 8.85954 -3.55137
1 -1.43245 8.94283 -4.43128
1 -1.1907 9.89912 -4.39083
1 -1.6466 10.0227 -3.59426
1 -2.23252 9.727 -4.34863
1 -2.56457 9.05884 -4.95362
1 -2.80289 8.84037 -5.88355
1 -3.5263 8.33534 -5.39275
1 -4.22042 8.66529 -5.88505
1 -3.70598 9.3766 -5.4698
1 -4.55727 7.45483 6.84505
1 -4.30949 8.31637 6.62972
1 -3.37672 8.25877 6.97466
1 -3.13305 9.07051 6.43467
1 -2.64044 9.78989 6.00578
1 -3.03919 10.5854 6.33279
1 -3.74578 9.93255 6.66826
1 -3.95997 10.4559 5.92924
1 -3.9727 -10.378 6.75502
1 -4.14547 -10.1255 7.61903
1 8.68401 7.93796 -6.34044
1 8.39969 8.44352 -7.11813
1 8.3499 9.31743 -7.45315
1 7.96934 9.27478 -6.57589
1 7.45065 8.7306 -7.10439
1 6.99688 7.87875 -7.13503
1 7.53119 7.80993 -6.34715
1 7.97901 7.32327 -7.07991
1 8.10552 6.79631 -6.27569
1 7.40434 6.30546 -6.80597
1 6.09666 7.31784 5.58137
1 5.27317 6.90926 5.78704
1 5.18924 7.26208 6.66372
1 4.75032 6.4731 6.72542
1 4.35725 6.33954 5.78665
1 4.32858 5.40755 5.6453
1 3.87793 5.55413 6.43547
1 3.20221 6.16058 6.00883
1 3.36425 6.08435 7.09729
1 2.72471 5.46594 6.71249
1 7.13738 0.261097 8.31467
1 6.41249 -0.180245 7.76457
1 6.0976 0.639991 8.18085
1 6.05554 1.12086 7.29396
1 6.60166 0.450121 6.82698
1 7.2824 1.15145 6.60847
1 7.45553 1.75514 5.97908
1 7.80494 1.47171 5.10481
1 8.14779 1.99448 4.33211
1 7.14326 2.0194 4.05923
1 -7.38815 0.797313 0.75016
1 -8.03879 1.1416 1.51012
1 -7.39109 1.99682 1.31148
1 -6.50564 1.56665 1.51186
1 -5.70712 2.05834 1.78749
1 -6.38052 2.16884 2.45762
1 -6.66004 2.8012 3.09083
1 -7.2867 2.07752 3.29431
1 -8.00815 1.84741 3.85352
1 -8.7725 1.6695 4.35742
1 6.1084 -5.93205 5.78389
1 6.69013 -5.14367 6.03744
1 6.02593 -5.25827 6.72581
1 6.20418 -5.72153 7.63664
1 6.52612 -4.89949 7.99758
1 5.80724 -4.34255 8.15758
1 5.93548 -3.97144 9.00344
1 6.9241 -4.29647 9.11246
1 7.56517 -3.74159 8.6513
1 8.25562 -4.37884 8.97394
1 9.50486 1.48195 -8.99524
1 9.88719 2.25092 -9.40101
1 9.87379 2.59988 -8.40826
1 9.81982 1.96966 -7.71076
1 10.4738 1.22202 -7.6661
1 -10.0398 1.08605 -8.2453
1 -9.16871 1.15247 -7.96766
1 -8.9878 1.78174 -8.65063
1 -8.65734 2.16141 -7.84576
1 -8.13089 1.42715 -8.05854
1 7.36359 -3.11593 1.74996
1 7.53221 -2.19562 1.98943
1 7.78941 -2.71165 2.77185
1 8.48219 -3.15851 2.34633
1 9.01733 -2.41109 2.63295
1 8.92159 -1.52942 2.28047
1 9.30683 -0.950109 1.60352
1 10.1836 -1.30839 1.45058
1 -10.1526 -1.43775 1.29308
1 -10.46 -2.3612 1.48316
1 -9.26184 9.63056 0.341033
1 -9.94587 10.2898 0.432388
1 -9.73236 -10.0354 0.285766
1 -10.4722 -9.40158 0.376983
1 9.86867 -9.5632 0.467412
1 10.1917 -8.73149 -0.0339864
1 9.28982 -8.97742 -0.292338
1 8.6807 -9.01372 0.475913
1 8.03374 -9.10985 1.18665
1 8.39299 -9.75719 1.76361
1 0.187259 10.5049 4.57007
1 -0.487652 9.78787 4.39588
1 -1.37386 10.1959 4.45488
1 -0.995052 10.2035 3.5774
1 -0.759739 9.76697 2.74088
1 -0.968153 9.94632 1.86871
1 -1.0723 9.59816 1.02272
1 -1.9261 9.58353 0.761011
1 -2.14571 8.82837 1.25019
1 -2.01543 9.58108 1.8003
1 0.297138 -0.373178 -1.54674
1 0.064816 0.0765328 -0.661591
1 0.330562 0.80234 -1.30832
1 -0.433271 0.364149 -1.70023
1 -1.28185 0.184462 -2.05196
1 -2.16145 0.26195 -1.89583
1 -2.03555 0.136134 -2.84821
1 -2.90885 -0.0582984 -2.59718
1 -3.58951 -0.294321 -3.26244
1 -4.01996 -1.02929 -2.7107
1 2.29422 0.951645 7.556
1 1.59879 1.64696 7.82293
1 1.94645 1.92431 6.95988
1 2.67034 2.04061 7.65309
1 3.0736 1.72445 8.49249
1 2.44104 1.3254 9.11689
1 3.42289 1.21407 9.2902
1 4.04503 0.504835 9.26999
1 4.71783 -0.0402211 8.91637
1 5.51081 -0.285436 8.42556
1 -4.96925 -8.42094 5.96936
1 -4.32878 -8.54967 5.26362
1 -5.24434 -8.75314 4.92564
1 -5.3752 -8.20253 4.16316
1 -5.0308 -7.29171 4.217
1 -5.48783 -7.49648 3.36527
1 -4.67586 -7.1008 2.90342
1 -4.26115 -7.83365 2.34401
1 -4.68278 -8.17673 3.16011
1 -3.86466 -8.63757 2.95396
1 3.6404 7.96325 -4.81578
1 3.58937 7.32972 -5.49911
1 4.29237 7.97479 -5.72925
1 4.86129 8.20565 -6.4499
1 5.77752 7.93746 -6.50256
1 6.47038 7.65263 -5.88802
1 7.12697 6.99763 -5.76154
1 6.84393 6.08151 -5.87149
1 6.08245 6.17163 -6.55929
1 6.49915 7.0157 -6.65904
1 -3.79731 2.77845 -0.469359
1 -3.03034 2.31753 -0.672291
1 -2.63424 2.84564 -0.0253086
1 -1.83513 2.53371 0.46308
1 -1.21155 2.2438 1.16668
1 -1.94774 1.6275 0.876878
1 -1.42907 1.44002 0.101267
1 -1.89404 0.620154 0.44312
1 -2.34791 -0.12467 0.834656
1 -1.46944 0.173599 1.21148
1 8.70268 -5.16139 -1.88717
1 9.48241 -4.65395 -1.5863
1 10.2395 -4.84328 -1.05292
1 9.93061 -5.58435 -1.52658
1 9.15182 -5.88524 -1.03284
1 8.23556 -6.14765 -1.0118
1 8.01277 -5.29694 -0.676377
1 8.42966 -4.56977 -1.18002
1 7.62722 -4.81654 -1.56865
1 7.82125 -3.92609 -2.01063
1 -7.18973 4.16448 6.12906
1 -7.75382 4.67735 6.81017
1 -8.02677 4.05057 7.45042
1 -8.57926 3.38514 7.00446
1 -8.17109 3.94113 6.28384
1 -8.08942 4.6294 5.65129
1 -8.37057 4.48342 4.7408
1 -9.01133 5.16451 5.04454
1 -8.24883 5.77729 5.12897
1 -7.68648 6.62303 4.8615
1 10.6095 7.29661 -9.00871
1 -9.97401 7.75584 -9.4307
1 -9.96984 7.84359 -10.3681
1 -9.71269 8.60266 -9.72263
1 10.5527 8.55545 -9.52493
1 -10.2734 9.0976 -8.91222
1 -9.73494 9.79384 -9.39066
1 -9.4824 10.1344 -8.56543
1 -9.03306 9.29053 -8.36752
1 -8.96028 8.75295 -9.14855
1 3.09398 -9.29888 0.169293
1 3.48672 -9.88845 0.782835
1 4.07047 -10.5576 1.18755
1 4.16922 -9.67671 1.45607
1 3.35925 -9.51119 1.93177
1 3.13559 -9.88547 2.75708
1 2.50758 -10.2121 2.13399
1 2.34255 -9.3219 1.78468
1 1.79912 -8.85947 2.49185
1 1.41867 -9.64389 2.20527
1 1.88438 0.524892 -7.70235
1 1.62237 0.931117 -8.55253
1 1.17063 1.452 -9.17809
1 0.420213 1.23365 -8.64544
1 0.761405 0.932528 -7.83396
1 0.104845 0.335845 -7.3412
1 -0.737521 -0.200046 -7.31585
1 -1.0305 0.623923 -7.69364
1 -0.533185 1.10443 -7.04446
1 0.470798 1.23201 -6.81722
1 2.43244 -4.03479 -0.105324
1 2.12553 -3.82753 0.737609
1 2.10413 -4.42733 1.47677
1 1.36232 -3.80607 1.45546
1 0.588648 -3.53106 0.889442
1 1.21144 -2.78463 1.0186
1 2.1581 -2.76469 1.00495
1 2.6053 -1.95748 0.87281
1 2.67391 -2.51061 0.125142
1 3.39192 -1.92313 0.165225
1 -1.63122 -7.63808 -1.95214
1 -1.304 -8.44974 -2.41102
1 -1.92729 -8.95691 -2.89115
1 -2.42256 -9.6901 -2.46267
1 -3.05771 -8.98686 -2.62891
1 -3.60369 -9.20271 -1.83845
1 -3.34842 -8.22975 -1.79975
1 -2.52872 -8.66272 -1.5816
1 -2.47293 -8.05942 -2.29157
1 -2.72558 -7.25546 -1.89638
1 9.50083 8.68137 10.0641
1 10.2232 9.13358 9.73934
1 10.5586 8.87087 -10.5799
1 -10.0939 9.60448 -10.4106
1 -9.48343 9.23989 10.2233
1 -9.22182 10.1165 10.4796
1 -8.74054 9.9568 9.6355
1 -8.51097 -10.4952 10.0928
1 -7.80766 -10.3297 9.48913
1 -8.40374 -10.5873 8.77427
1 1.47154 4.38642 -6.06226
1 2.45185 4.29356 -6.25899
1 2.58469 4.0566 -5.33519
1 3.49568 4.14962 -5.14813
1 3.56797 5.14903 -5.42981
1 4.54853 4.97748 -5.30032
1 4.1795 4.40529 -5.96948
1 3.93119 4.32133 -6.89708
1 3.04456 4.26666 -7.17419