8000
Atoms. Timestep: 4400000
1 9.64581 5.18419 -1.0911
1 10.0469 6.03683 -1.05911
1 10.6377 6.30803 -0.410267
1 -10.5824 5.97596 0.458956
1 -10.1856 5.41165 -0.239159
1 -9.35373 5.37195 -0.668604
1 -9.80738 6.08964 -1.03533
1 -9.68559 6.84181 -1.69348
1 -10.4122 7.55256 -1.56331
1 -10.1478 7.12314 -0.737302
1 2.40237 8.67354 -4.86026
1 1.82572 9.03884 -4.16055
1 2.07388 9.70052 -3.54707
1 1.16183 9.74062 -3.82916
1 0.193733 9.60377 -3.71061
1 0.852008 8.81733 -3.59052
1 1.60834 8.59752 -3.05762
1 1.4882 8.49512 -2.07396
1 1.6426 8.24708 -1.12278
1 1.5859 7.49184 -1.69967
1 -9.72544 1.28381 5.02234
1 -9.15538 0.454601 5.26023
1 -8.5167 -0.186504 5.15625
1 -9.12122 -0.572286 5.80221
1 -9.10963 -1.13751 5.08315
1 -8.97219 -1.22782 4.02374
1 -8.70106 -2.09556 3.7139
1 -8.34218 -1.42967 3.04924
1 -9.23455 -1.59568 3.00394
1 -9.303 -2.44648 2.55688
1 2.40344 -8.08893 -6.38617
1 2.8976 -8.65512 -7.03756
1 3.28151 -9.31635 -7.66488
1 3.67311 -10.1039 -7.42854
1 4.28432 -9.39267 -7.26432
1 4.81402 -10.0026 -7.78501
1 4.80328 -9.28882 -8.48533
1 4.02252 -8.97134 -8.97453
1 4.20657 -9.72487 -9.61859
1 4.86334 -9.52143 -10.2838
1 -0.56758 7.95074 2.49513
1 -1.25523 8.61651 2.77142
1 -1.8668 9.1604 3.50301
1 -2.22324 8.76145 4.27682
1 -2.48763 9.414 4.86529
1 -2.26862 8.65929 5.54889
1 -2.92081 8.24057 5.09559
1 -3.75065 8.69878 5.2646
1 -3.37629 8.54621 6.126
1 -3.04153 7.66728 6.08262
1 -9.24174 -8.6076 8.6053
1 -9.81205 -8.2534 9.31751
1 -10.1431 -8.99578 8.7227
1 -9.96924 -9.41526 7.97861
1 -9.42421 -9.10752 7.28961
1 -9.69504 -9.98298 6.96522
1 -8.98666 -10.2122 6.32852
1 -9.83781 -10.2923 5.81316
1 -10.1898 -9.43036 5.69512
1 -9.41584 -9.29127 6.20324
1 -6.18032 4.10315 5.4828
1 -7.01916 4.44953 5.3209
1 -6.63416 3.77469 4.6599
1 -5.67436 4.02103 4.41449
1 -4.8184 3.97308 4.0847
1 -5.4358 3.2754 3.83152
1 -5.35489 2.36713 3.50883
1 -4.58539 1.81638 3.44869
1 -4.41618 0.861357 3.62837
1 -3.59022 1.17028 3.36648
1 -9.58311 -4.14441 7.78051
1 -10.3977 -4.55727 8.0931
1 10.182 -4.63584 7.94016
1 9.44567 -3.9883 7.7829
1 10.1925 -4.00042 7.10094
1 9.34434 -4.06929 6.67554
1 9.77963 -4.82957 6.37793
1 10.6654 -4.92912 7.03726
1 -10.0508 -4.47256 6.73124
1 -10.7185 -3.89971 6.29579
1 1.60502 -3.89692 -2.82946
1 1.96832 -3.11356 -2.56164
1 2.05794 -2.9402 -1.62571
1 2.46298 -3.83053 -1.98695
1 2.91532 -4.57584 -2.29827
1 2.00912 -4.83252 -2.51496
1 2.70476 -5.36704 -2.92827
1 3.48648 -5.61824 -3.42727
1 3.61236 -4.77408 -3.95906
1 2.69714 -5.06444 -3.94612
1 4.56157 -7.51451 -5.76971
1 4.44451 -6.66181 -6.03691
1 4.75862 -6.27674 -6.88725
1 5.49275 -6.94172 -6.84737
1 5.91349 -6.31419 -7.46114
1 5.18597 -5.66883 -7.73316
1 5.77372 -5.93262 -8.4871
1 5.05663 -6.46974 -8.91571
1 4.34199 -5.89491 -8.70023
1 5.09506 -5.45207 -9.14288
1 5.21888 -8.03766 6.80155
1 4.62735 -8.0297 6.05068
1 4.93324 -7.62028 5.25049
1 4.84724 -8.57453 5.12233
1 4.20519 -8.85816 4.48585
1 3.48462 -9.30072 4.01266
1 3.21791 -8.5782 4.58747
1 3.73666 -7.82972 4.11036
1 4.67934 -7.99096 4.23631
1 5.32906 -8.13002 3.56133
1 -3.9865 -7.71731 4.53284
1 -3.57299 -7.13481 5.11957
1 -3.00378 -7.54954 5.85607
1 -2.4597 -6.92175 5.25384
1 -1.98184 -7.23345 4.52757
1 -1.41641 -6.69178 5.08596
1 -0.653815 -7.11023 4.70375
1 -0.93476 -7.95583 5.24871
1 -1.12698 -8.87788 4.99646
1 -1.56047 -9.77874 5.06545
1 4.27746 -4.48081 4.40895
1 3.94001 -3.61449 4.06804
1 3.41637 -3.05316 4.7481
1 3.65848 -2.07749 4.88721
1 3.52525 -2.32482 3.88005
1 2.91751 -1.56434 3.87416
1 3.2461 -0.681435 3.70857
1 3.99938 -0.17854 3.486
1 3.6807 -0.595565 2.65142
1 2.76829 -0.213895 2.84148
1 5.89502 -7.90272 -4.76279
1 6.7019 -7.66365 -5.26136
1 7.17946 -7.51044 -6.07061
1 7.15494 -7.85862 -6.98719
1 6.82754 -8.73071 -7.12141
1 7.43569 -8.68079 -6.34981
1 7.24809 -9.31409 -5.48714
1 6.65509 -10.042 -5.29155
1 7.51311 -10.5472 -5.24928
1 7.24148 10.6994 -4.29923
1 0.989243 6.6828 -1.58751
1 0.177484 6.88263 -1.99934
1 -0.203735 6.0557 -1.79972
1 -0.766121 6.47063 -1.09666
1 -0.825165 7.32319 -1.5526
1 -0.896104 8.11424 -0.90742
1 -0.269103 8.39954 -0.25813
1 -0.531734 9.28199 -0.555492
1 -0.937972 8.99881 -1.39931
1 -0.516054 9.74044 -1.92122
1 0.719573 -3.82173 -3.39215
1 1.02805 -2.93413 -3.54271
1 1.79331 -2.76776 -4.07402
1 1.84588 -2.13056 -4.76791
1 0.912534 -2.26206 -4.4825
1 1.11744 -1.31851 -4.35925
1 0.456647 -1.41009 -5.04956
1 0.427891 -0.76274 -5.76006
1 0.605446 -1.51165 -6.28912
1 1.18476 -1.97667 -5.67851
1 9.74354 2.88369 7.73888
1 9.6684 3.79497 7.76443
1 10.2539 3.84146 8.48885
1 -10.6207 3.57375 9.24758
1 -10.6158 4.45845 9.61326
1 -9.91963 5.02786 9.21121
1 -9.04952 4.78362 9.10007
1 -8.54492 4.69122 9.83246
1 -9.18855 5.13797 10.3556
1 -9.42774 4.16718 10.0468
1 1.155 -9.87769 -6.86396
1 2.03317 -9.5909 -7.12483
1 1.6914 -10.3785 -7.65639
1 1.60456 -9.66579 -8.30902
1 2.5265 -9.8623 -8.24908
1 2.91684 10.7189 -8.51034
1 2.19268 10.1614 -8.38266
1 1.28484 10.3809 -8.60014
1 1.59099 9.65977 -9.19186
1 2.52323 9.66455 -9.33968
1 -10.1268 -10.2045 -4.09101
1 -9.59308 10.633 -4.60687
1 -9.48489 10.1244 -5.49066
1 -8.71311 10.0068 -4.99303
1 -8.43394 9.26086 -4.34897
1 -8.62781 8.33286 -4.19172
1 -9.37727 8.58069 -3.64837
1 -10.2773 8.89122 -3.41164
1 -10.0495 9.43356 -4.10566
1 -10.5204 10.0919 -4.67078
1 -9.08794 -6.8581 -6.67771
1 -9.88578 -6.53311 -6.18586
1 -9.73642 -7.41071 -5.64662
1 -10.3048 -7.77217 -6.30138
1 10.6997 -7.13982 -5.79924
1 9.78326 -6.95152 -6.02465
1 10.3359 -6.98685 -6.81752
1 10.3118 -7.84118 -7.34566
1 -10.2189 -8.12669 -7.57582
1 -9.67402 -8.62736 -6.88456
1 1.76778 -8.54484 2.62317
1 0.786786 -8.25821 2.4686
1 1.33255 -7.5109 2.22288
1 1.95953 -7.07712 2.84067
1 1.84009 -6.11337 2.76164
1 1.52203 -6.41469 1.92543
1 1.59502 -6.98775 1.10896
1 2.51062 -6.93114 0.752785
1 2.27858 -6.18235 1.26469
1 2.95858 -6.44224 1.94922
1 -9.80081 3.86756 -7.86643
1 -10.6069 3.38482 -7.87957
1 10.5289 4.38329 -7.76731
1 9.70135 4.89327 -7.40029
1 8.98814 4.49411 -6.88429
1 8.62782 5.25442 -7.33995
1 9.16244 5.59155 -6.55926
1 9.28026 5.7795 -5.65809
1 9.7656 6.44275 -6.18032
1 10.5275 7.00423 -6.474
1 7.56564 8.30596 -6.85811
1 7.73986 8.04567 -7.76762
1 7.85181 7.18845 -7.48403
1 8.67312 7.3872 -6.9834
1 9.24691 6.66331 -7.22589
1 9.7463 5.87936 -7.34796
1 10.442 6.60998 -7.51444
1 10.2299 6.39124 -8.48262
1 9.37815 6.10631 -8.77228
1 10.0659 5.67561 -9.31115
1 -0.417006 7.86615 -5.96169
1 -0.284381 7.22759 -5.23016
1 0.0796288 7.91366 -4.66394
1 -0.257637 8.05352 -3.79006
1 0.144454 7.50448 -3.11361
1 0.963737 7.70947 -2.6568
1 1.29654 6.83634 -2.59842
1 0.831575 5.9792 -2.69738
1 1.69866 5.61799 -2.61523
1 1.80307 5.29395 -1.76406
1 1.31238 5.27199 -8.90357
1 0.644936 5.89558 -9.21005
1 0.024092 5.1731 -9.42741
1 -0.481215 4.43921 -9.79422
1 -0.842285 3.57971 -9.70793
1 -1.76082 3.89287 -9.62323
1 -2.24426 4.21391 -8.80211
1 -2.73421 4.66664 -9.48432
1 -3.63644 4.75305 -9.60217
1 -4.00942 5.11038 -10.4818
1 -6.37007 -6.35538 4.83581
1 -6.63005 -6.11282 5.68357
1 -6.7915 -7.05848 5.582
1 -7.72618 -7.00019 5.85229
1 -8.44171 -7.16202 5.24696
1 -9.11508 -7.79816 5.39649
1 -9.72465 -8.06064 6.08786
1 -9.66106 -8.66603 5.381
1 -9.30463 -9.38431 4.78557
1 -10.1878 -9.11676 4.4801
1 1.62503 6.02825 -9.56312
1 1.11095 6.80172 -9.79267
1 0.615461 6.22517 -10.3986
1 -0.186731 6.51724 -10.0033
1 -0.511586 6.24156 -9.12521
1 0.00400083 6.16434 -8.30337
1 0.29115 6.95208 -7.86519
1 0.928893 6.71159 -7.1557
1 0.788396 5.78192 -7.49045
1 1.36004 5.61815 -6.72856
1 0.755716 10.4793 9.64493
1 0.0407674 10.6329 9.03619
1 0.657014 -10.1253 8.94658
1 1.46932 -10.0056 8.47099
1 1.67733 -10.1487 9.41608
1 1.52804 -9.21208 9.22837
1 0.945779 -8.85785 9.93303
1 1.85843 -8.43209 9.96173
1 1.29022 -8.19372 9.2008
1 0.434363 -7.82081 8.92465
1 0.30638 2.97212 -3.52701
1 1.17345 3.16084 -3.97702
1 1.71803 2.33562 -4.09834
1 2.29379 3.09363 -4.19553
1 2.78837 3.91317 -4.3881
1 3.69166 3.51581 -4.18821
1 3.55635 4.4868 -4.18518
1 3.83133 4.19766 -5.06941
1 2.89644 4.43819 -5.30906
1 2.88607 5.02395 -6.08214
1 -0.14963 6.62709 0.0716759
1 0.287469 6.67244 -0.791361
1 0.228715 7.59201 -0.470796
1 1.14319 7.31713 -0.569392
1 0.882337 6.99911 0.277269
1 1.04211 6.12641 -0.134207
1 1.5973 6.13473 -0.934388
1 2.12286 6.29135 -1.73564
1 2.68246 6.29682 -0.992854
1 2.88418 5.42018 -1.29981
1 -1.01333 -6.1185 6.05404
1 -0.498299 -6.18953 5.22487
1 0.340817 -5.87733 4.89856
1 0.159747 -4.95499 4.80521
1 -0.636333 -5.00793 5.28784
1 -0.12539 -4.29798 5.61798
1 -0.327752 -3.40364 5.37005
1 -0.912284 -2.69129 5.12484
1 -0.796201 -3.22034 4.28244
1 -0.248231 -3.97291 4.47371
1 6.75717 -0.215239 -7.69064
1 6.36013 0.0198553 -6.84294
1 7.2072 0.42799 -6.50886
1 6.54834 1.07921 -6.60861
1 7.20572 1.203 -5.94947
1 6.61977 0.510716 -5.58687
1 6.82465 -0.364625 -5.34693
1 7.75387 -0.443382 -5.44719
1 7.5011 -1.3134 -4.95151
1 7.96208 -1.66836 -5.67404
1 7.22589 8.09526 4.78253
1 6.93205 8.21733 5.65471
1 6.28639 7.57227 5.9521
1 6.74625 6.8712 5.43219
1 6.47015 6.29032 6.1242
1 6.14004 5.31689 5.8852
1 5.37042 4.88746 6.35968
1 4.67131 5.42319 5.96177
1 5.41197 6.04904 6.13867
1 5.66885 6.5825 5.34537
1 4.56107 5.36256 0.0959955
1 3.74642 5.48923 -0.433465
1 4.558 5.25187 -0.9684
1 4.29321 4.38698 -0.710679
1 3.45946 4.42496 -1.32046
1 4.1411 4.7613 -1.8956
1 5.05852 4.53662 -1.75721
1 5.72448 5.2421 -2.038
1 6.00862 5.84798 -2.7026
1 6.63911 6.24176 -3.36062
1 -8.46122 4.34942 -6.42272
1 -9.1364 3.69296 -6.53292
1 -8.76256 3.93789 -7.43035
1 -8.49507 3.11144 -7.89097
1 -8.37511 3.01104 -6.94209
1 -9.28271 2.58256 -7.07227
1 -10.0125 3.23483 -6.86558
1 -9.8519 2.88378 -6.0228
1 -10.1805 2.16876 -6.4993
1 10.5559 2.81292 -6.53003
1 -3.2182 -6.66487 -2.04703
1 -3.16197 -7.7092 -1.8985
1 -2.94033 -7.82798 -2.86667
1 -3.76428 -8.4191 -3.02617
1 -3.48011 -9.16879 -3.47614
1 -3.14817 -8.9859 -4.36988
1 -3.03601 -8.26562 -3.82123
1 -3.11841 -7.22781 -3.89522
1 -3.17633 -6.25708 -3.93702
1 -2.27486 -6.57573 -4.08196
1 2.02759 7.41684 -10.4572
1 2.32992 6.93902 -9.66621
1 3.22479 7.07756 -9.3294
1 3.54836 6.61075 -8.60836
1 2.86761 6.92155 -8.09248
1 3.7256 7.02194 -7.56463
1 4.30451 7.42798 -8.1925
1 4.97597 7.91631 -7.78654
1 4.16817 7.99573 -7.28896
1 3.67184 8.74162 -7.35946
1 -2.37884 -3.45077 5.56151
1 -1.95535 -2.96379 4.87827
1 -2.85387 -3.10872 4.57051
1 -2.43025 -3.87459 4.23126
1 -2.47616 -4.44489 3.39221
1 -2.59227 -5.44413 3.62931
1 -2.05435 -4.88153 4.22034
1 -1.5345 -4.10073 4.06625
1 -1.27558 -3.81588 5.0299
1 -1.25371 -3.61827 5.9387
1 7.06252 4.9398 6.61572
1 6.97204 5.77267 6.9781
1 6.54167 5.12734 7.50323
1 6.52736 4.91444 8.47495
1 6.72351 4.0266 8.21629
1 6.58364 3.28005 8.8725
1 7.04279 3.0129 8.07711
1 7.91911 2.68847 7.8858
1 7.82838 3.0935 8.77684
1 8.67139 3.47179 9.01227
1 -4.20487 -5.47255 9.28483
1 -4.86365 -5.63612 8.62798
1 -5.43267 -5.16336 9.24672
1 -6.41755 -5.05278 9.35423
1 -7.29082 -4.78558 9.65158
1 -6.79266 -3.9732 9.85262
1 -6.02582 -4.3558 10.2924
1 -5.20245 -3.97862 10.5919
1 -4.46642 -3.43461 10.5736
1 -3.61615 -3.72008 -10.4278
1 3.05136 4.78075 -8.59081
1 3.14196 5.67913 -8.1004
1 2.71299 5.90995 -8.9532
1 3.36198 5.42309 -9.47942
1 4.27396 5.81052 -9.66005
1 4.39853 4.92611 -9.98729
1 4.73874 4.47159 -9.25228
1 5.06304 3.61679 -9.18563
1 5.50023 4.06742 -8.45992
1 5.91054 4.45778 -9.18405
1 10.7136 7.45377 -8.23034
1 -10.5375 8.34992 -7.86138
1 -9.96761 7.6219 -7.47332
1 -9.96342 6.76769 -7.0121
1 -10.3374 5.88856 -6.97379
1 -10.3623 5.63973 -7.96187
1 10.1175 5.30012 -8.12323
1 9.68678 4.45189 -8.44932
1 9.88809 4.44289 -9.39706
1 -10.7115 4.53007 -8.86199
1 8.69257 9.92473 -7.30521
1 9.13599 -10.6608 -7.00447
1 8.20954 -10.4029 -6.79174
1 7.51857 10.4335 -7.15073
1 7.28371 9.47036 -7.47456
1 6.62262 8.79677 -7.56974
1 6.13962 8.19978 -8.17198
1 7.07993 8.07154 -8.52824
1 7.57628 8.87195 -8.38572
1 8.43079 9.09801 -7.90158
1 3.35871 5.42028 2.94564
1 4.13417 5.93739 3.07239
1 5.16579 5.97525 3.12988
1 5.56737 5.28703 3.68857
1 6.41099 5.46957 4.20589
1 6.31653 4.72147 3.61556
1 7.2918 4.55167 3.79325
1 7.74517 5.30286 3.29139
1 7.91643 5.54421 4.17403
1 8.12125 5.01474 4.88527
1 10.2928 2.19318 -0.771331
1 -10.5137 1.59118 -0.521571
1 10.3294 0.848393 -0.62262
1 10.5364 1.02112 -1.52616
1 10.507 1.45148 -2.37632
1 9.58608 1.45005 -2.29565
1 9.30746 0.729158 -1.75562
1 8.72712 0.502554 -2.47793
1 7.9832 -0.102567 -2.5035
1 7.83358 -1.01695 -2.38638
1 3.21328 1.84858 -0.238396
1 2.98752 1.24613 0.438672
1 3.72469 1.69444 0.800171
1 4.22013 1.9853 0.107705
1 4.13991 2.69806 -0.476005
1 3.80394 3.4329 -1.01596
1 4.61497 3.05411 -1.41789
1 4.16635 2.56891 -2.13024
1 4.57162 1.82732 -2.56732
1 3.74752 1.3225 -2.2284
1 10.2292 8.85098 1.2023
1 10.1742 7.96251 1.46003
1 9.26027 8.01599 0.92361
1 9.22088 7.26203 1.47828
1 10.0895 6.78355 1.34513
1 9.48159 6.09612 1.09307
1 9.17794 5.32604 0.652234
1 9.18341 4.48481 0.128128
1 9.98895 4.60095 -0.282056
1 9.99649 5.45205 0.0933963
1 -0.288072 -8.43388 8.3505
1 -0.66183 -7.72354 8.84776
1 -1.19955 -8.42104 8.58907
1 -1.04166 -8.84769 7.78025
1 -0.949032 -9.68533 8.10491
1 -0.411097 -9.38368 8.86913
1 -0.207566 -9.20479 9.79147
1 0.361441 -9.83623 10.2889
1 -0.477244 -10.0272 10.6646
1 -0.182012 -10.4222 -9.93103
1 3.36289 2.98059 -8.94626
1 3.68501 3.85797 -9.14153
1 3.44218 4.41958 -9.87053
1 2.59871 3.88736 -9.80396
1 2.47009 4.51963 -10.5059
1 2.81237 4.80839 10.1607
1 2.03392 5.28361 10.5029
1 1.45397 4.55437 10.3051
1 1.92248 3.6696 10.359
1 2.69652 3.68047 9.79073
1 8.80549 -9.72434 2.73853
1 9.62974 -10.2895 2.78736
1 9.72515 10.6385 2.00876
1 9.95032 9.69119 2.23934
1 9.77547 9.08369 2.96367
1 9.64625 10.0996 3.21359
1 10.4442 9.57701 3.40971
1 -10.7101 10.4737 3.09542
1 -10.5919 10.5054 2.14833
1 -10.3536 -10.1983 1.65038
1 1.82451 -6.64011 -0.857537
1 2.65904 -6.89721 -0.279865
1 2.53458 -5.97939 0.0499375
1 2.3763 -5.10511 0.517785
1 2.02421 -4.4958 -0.25365
1 1.59904 -4.21688 0.580915
1 1.21614 -3.32471 0.60009
1 1.1721 -2.48332 0.143325
1 0.702777 -1.80788 0.721512
1 1.22028 -2.23759 1.46083
1 -2.06123 10.2524 6.69076
1 -2.22578 10.1105 5.80287
1 -1.61194 9.38084 6.04549
1 -0.851314 9.61246 5.53038
1 -0.68013 8.74029 5.3047
1 -1.34334 8.33721 5.83677
1 -1.26071 7.42344 5.90313
1 -1.77692 7.5136 6.74648
1 -2.57834 7.41772 7.19792
1 -3.39117 6.76067 7.11482
1 6.61376 -5.57753 2.20569
1 7.34089 -5.2105 1.57614
1 7.32437 -5.1785 0.571155
1 8.00798 -5.72748 0.128298
1 7.19697 -5.98852 -0.178629
1 6.82056 -6.47057 -0.953883
1 7.33066 -5.92343 -1.54762
1 7.85525 -6.38498 -0.861408
1 7.95154 -7.05868 -1.54273
1 8.2397 -7.87851 -1.97924
1 2.80996 9.83588 -5.4415
1 3.75004 9.67801 -5.45688
1 3.86741 9.78891 -4.49199
1 3.39645 10.484 -4.98328
1 4.03869 -10.4743 -4.51154
1 4.86759 -10.4508 -4.00288
1 4.56522 10.1384 -3.83378
1 4.60927 9.25229 -4.01311
1 4.74121 8.29492 -4.19247
1 5.10527 8.19242 -5.07808
1 10.1393 3.11569 -4.49553
1 10.3854 3.95442 -4.87878
1 -10.3084 3.48466 -5.20274
1 -10.047 4.31398 -4.7979
1 -10.4696 4.93356 -5.40786
1 -9.56735 5.25003 -5.2063
1 -8.74402 4.9838 -5.59852
1 -7.82186 5.31168 -5.96111
1 -6.90481 4.85005 -5.88934
1 -6.81352 4.45022 -5.05804
1 1.5652 6.20451 5.09936
1 2.53972 5.94503 4.89103
1 2.38069 5.30911 5.60716
1 2.43968 4.37605 5.91981
1 3.08585 4.04622 5.24199
1 3.95669 4.14038 4.86507
1 3.46338 3.28569 4.55425
1 4.22675 2.92608 4.93291
1 3.85955 2.34746 5.59708
1 3.8631 1.63168 6.4031
1 9.9625 -0.173795 4.63075
1 9.85574 0.0959308 5.48234
1 9.96755 1.0072 5.22622
1 -10.6634 0.755861 4.88712
1 -10.5379 1.52792 4.3869
1 -10.1741 2.23372 4.99869
1 10.6712 2.80043 4.6086
1 10.6672 3.60996 5.05351
1 10.552 3.69275 4.03591
1 9.8933 3.02072 3.80503
1 -5.09737 -2.29343 -7.06624
1 -4.69622 -2.95265 -6.50965
1 -4.69584 -3.80611 -6.08543
1 -3.78501 -4.0486 -6.18625
1 -3.8988 -3.71112 -7.08858
1 -3.58012 -4.62728 -7.16691
1 -2.72944 -5.10162 -7.14368
1 -2.13102 -4.46962 -7.44729
1 -1.55443 -4.07745 -8.12501
1 -2.34147 -3.81233 -8.60007
1 -2.46087 -1.71117 -5.63375
1 -3.39553 -1.88106 -5.41589
1 -3.20892 -1.69231 -4.4974
1 -3.11928 -0.68728 -4.37997
1 -3.56719 0.0685323 -4.61315
1 -3.43667 0.993989 -4.30881
1 -2.59099 0.495901 -4.20257
1 -1.64755 0.394736 -3.99284
1 -1.84185 1.23317 -3.54157
1 -2.82188 1.24253 -3.4869
1 -8.15548 -5.87875 -0.0127607
1 -8.42527 -5.8207 -0.961931
1 -9.0866 -5.17801 -1.20951
1 -9.2604 -5.9744 -1.77027
1 -8.94935 -6.05908 -2.72421
1 -8.82413 -5.23634 -3.09817
1 -8.6365 -5.29362 -2.1118
1 -8.01183 -5.98248 -1.86897
1 -8.0897 -6.58175 -2.68556
1 -7.46822 -6.45652 -3.39905
1 8.31461 5.53031 -3.56402
1 7.89672 4.65779 -3.33042
1 7.9116 5.01098 -2.3926
1 8.2777 4.0275 -2.35202
1 8.97379 3.68989 -2.95938
1 9.16379 3.03245 -3.58696
1 9.2893 3.69818 -4.22951
1 8.57131 3.27809 -4.68978
1 9.35387 3.18194 -5.22782
1 10.0591 3.5171 -5.79221
1 9.6479 -6.19698 -1.17172
1 9.31451 -5.31739 -1.29634
1 9.48726 -4.66575 -1.9824
1 9.54126 -3.71067 -2.13196
1 9.98752 -3.87058 -1.25205
1 9.22096 -4.19261 -0.855681
1 8.55565 -3.88703 -0.23561
1 8.30504 -3.71631 0.633662
1 9.25697 -3.87331 0.875194
1 9.78821 -4.14408 0.148774
1 9.76816 -4.45797 -3.03855
1 9.74534 -5.30137 -2.71398
1 10.2474 -5.31877 -3.51739
1 9.36225 -5.37912 -3.86322
1 9.38452 -5.54868 -4.8057
1 8.51174 -5.84909 -4.47676
1 8.01973 -6.40785 -3.9226
1 7.353 -6.62194 -4.59832
1 6.5525 -6.56434 -5.17649
1 6.82069 -5.67876 -5.03178
1 -2.57352 -3.33652 -0.4533
1 -2.0819 -2.60685 -0.89833
1 -2.60562 -2.64823 -1.67679
1 -3.20059 -2.27183 -1.03286
1 -4.19384 -2.21138 -0.971716
1 -4.02866 -3.09845 -1.18891
1 -3.43794 -3.34034 -1.98706
1 -2.77203 -3.75008 -1.41301
1 -2.17762 -4.28587 -1.9271
1 -1.98041 -3.40568 -2.24559
1 -0.465788 8.03003 4.30961
1 -0.0766239 7.70703 5.16762
1 0.746229 8.19289 5.04646
1 1.65405 7.9724 4.79227
1 2.17246 7.2077 5.08742
1 2.6446 7.87978 4.59025
1 3.54792 7.95129 4.9824
1 3.46561 7.89963 5.93738
1 4.4399 7.83626 5.83932
1 5.33025 7.49703 5.88169
1 -5.68726 2.38637 -2.14481
1 -4.82671 1.97412 -2.44109
1 -4.32006 2.26909 -1.69891
1 -4.7845 2.93811 -1.24153
1 -5.29077 3.37531 -1.94657
1 -4.71788 3.9734 -2.50544
1 -5.02276 4.60774 -1.8723
1 -5.15156 3.98305 -1.19924
1 -4.37646 3.70767 -1.6305
1 -4.28661 3.03061 -2.33551
1 5.64628 4.26054 9.06015
1 5.61823 5.03891 9.63248
1 5.90706 4.91241 10.5488
1 5.43437 4.45326 -10.1717
1 5.59738 5.48261 -9.9634
1 4.90817 5.59706 -10.5805
1 4.6921 4.80962 10.365
1 4.03344 5.48119 10.3183
1 3.22147 5.43622 -10.61
1 2.72491 6.04824 10.2607
1 -6.94817 -9.1595 3.63083
1 -6.92037 -10.0427 3.8773
1 -6.94778 10.4794 3.71431
1 -6.40788 10.3191 2.93674
1 -6.63792 10.4681 2.05446
1 -7.57642 10.201 2.1403
1 -7.12517 9.75252 1.52745
1 -6.21375 9.68056 1.1101
1 -6.25454 8.94123 0.53265
1 -6.28123 8.1603 1.16689
1 -8.51561 2.34244 1.18861
1 -9.37988 1.91114 1.36781
1 -10.0171 1.73201 0.581468
1 -10.1635 2.537 1.06535
1 10.6209 2.50658 0.331507
1 10.4392 1.90366 1.04917
1 9.72974 2.05937 0.448173
1 9.78423 3.05159 0.575943
1 9.31249 2.65725 1.29137
1 9.85834 2.24637 1.92951
1 6.0495 -6.36851 0.0209165
1 6.01204 -7.29363 -0.0629193
1 5.38238 -7.32555 -0.754812
1 6.20062 -7.74912 -1.02332
1 6.52393 -8.59525 -0.572169
1 5.53577 -8.25068 -0.48896
1 5.31481 -8.17779 -1.44915
1 5.864 -8.15759 -2.2238
1 6.40689 -8.87398 -2.48563
1 6.30856 -8.2038 -3.19706
1 -0.187246 3.47021 -6.76548
1 0.35986 4.17632 -6.24083
1 0.55612 4.74652 -7.00124
1 1.13253 4.15291 -7.44285
1 1.73404 4.26711 -6.64494
1 1.81615 4.94211 -5.85569
1 1.96085 5.50089 -5.01723
1 1.12105 5.8988 -5.17256
1 0.577967 5.7178 -4.46369
1 -0.0896958 6.09618 -5.02235
1 -8.06821 -9.87292 4.87863
1 -7.99355 -10.3716 5.63454
1 -8.83478 -10.3385 5.31389
1 -9.25088 10.4213 4.74251
1 -9.90903 -10.3445 4.77334
1 -10.4909 10.538 4.27744
1 -9.71611 10.6907 3.66482
1 -9.46647 10.4027 2.80087
1 -9.09893 9.88613 3.58908
1 -10.0079 9.61958 3.69105
1 8.133 -4.87564 9.97506
1 8.35628 -4.24597 10.7254
1 8.0057 -3.39674 10.3981
1 7.60803 -2.83977 9.68485
1 6.8086 -2.24884 9.67507
1 7.63533 -1.73437 9.72315
1 7.85304 -1.61822 10.6259
1 7.57613 -0.70914 10.1553
1 6.87547 -1.39879 10.2808
1 6.67681 -1.16805 9.34564
1 8.36402 3.16943 -0.806908
1 8.00815 3.86435 -1.33079
1 7.68887 4.09139 -0.520451
1 6.99164 3.59373 -0.0666211
1 7.13259 3.86152 0.852918
1 7.38774 4.83992 1.09961
1 7.94966 4.48072 1.72698
1 7.59469 3.62736 1.86262
1 8.31505 3.41175 2.47007
1 8.13224 4.26085 3.00859
1 2.39118 -2.27111 -9.60258
1 2.53264 -2.64924 -8.72679
1 1.80576 -2.04081 -8.70217
1 1.23393 -1.72337 -8.00463
1 1.25659 -2.73381 -7.95638
1 2.14837 -2.49969 -7.67622
1 2.59081 -3.36267 -7.87251
1 2.75544 -4.21206 -8.1882
1 2.06393 -4.28205 -7.54823
1 1.63804 -3.51271 -7.29117
1 -5.35109 0.268211 9.70581
1 -4.78028 0.342315 8.99097
1 -4.77105 -0.192005 8.12144
1 -4.85886 -0.84193 7.43016
1 -5.42035 -0.985875 6.70408
1 -5.84793 -1.83713 7.04025
1 -6.81247 -1.90764 6.74414
1 -7.62036 -1.99655 7.27609
1 -6.86155 -2.26974 7.8718
1 -6.16662 -2.90497 7.65461
1 -1.9871 9.78855 -9.12279
1 -2.68189 9.40313 -8.60502
1 -2.28728 10.2786 -8.22972
1 -1.43015 10.4905 -7.82702
1 -0.628709 9.83204 -7.8362
1 0.0524144 9.57835 -8.5053
1 0.0284028 8.73881 -8.92563
1 0.808868 8.91923 -8.29323
1 1.3886 9.55361 -7.79963
1 1.73716 8.65894 -7.71598
1 2.83243 2.36027 5.05054
1 2.43207 2.63593 4.24372
1 1.50235 2.62167 4.46643
1 0.684858 3.02077 4.2552
1 0.0434431 2.47474 3.79051
1 -0.854046 2.22806 3.80902
1 -1.24746 1.77563 3.09834
1 -1.49912 2.11534 2.25223
1 -1.02493 2.81658 1.70231
1 -1.00975 3.14545 2.57548
1 9.38122 7.69236 -6.10805
1 9.51189 7.7578 -5.01262
1 10.202 7.2187 -5.45531
1 -10.4127 7.43155 -5.17443
1 10.5994 7.9777 -4.59504
1 -10.4265 7.70938 -3.78889
1 -9.66324 7.21519 -3.31953
1 -8.89284 7.27079 -2.71022
1 -8.74133 8.23671 -2.79766
1 -8.26541 8.77038 -3.46781
1 -6.51571 -6.53963 -4.79257
1 -7.50534 -6.36917 -4.61791
1 -6.9457 -5.87466 -4.07426
1 -6.36481 -5.29509 -4.64109
1 -5.62197 -5.41422 -5.23469
1 -6.0099 -4.5236 -5.44367
1 -5.85979 -3.87233 -6.09289
1 -5.39579 -4.69155 -6.27717
1 -5.69835 -4.6637 -7.16222
1 -6.23756 -4.60938 -7.95772
1 4.07546 6.51408 10.2589
1 4.54229 6.25691 9.53743
1 4.12074 5.42296 9.28394
1 4.3643 5.26833 8.35231
1 3.42797 5.01152 8.46753
1 3.34408 4.22923 8.97891
1 2.60756 4.19872 8.42965
1 2.82265 4.79376 7.63208
1 2.88122 3.81374 7.35917
1 3.22059 4.36527 6.68374
1 -7.86028 5.02381 -0.265347
1 -7.24036 4.54717 0.320465
1 -6.75255 3.73194 0.3914
1 -6.11555 4.18231 0.976127
1 -6.11345 4.86294 1.67291
1 -5.21022 4.5033 1.72534
1 -4.96289 3.60845 1.89692
1 -4.62461 3.16916 2.68154
1 -4.31859 2.9528 3.53477
1 -3.91503 3.88988 3.37268
1 -3.25247 -8.00238 -7.88868
1 -3.73894 -8.22014 -7.13169
1 -3.41504 -8.88423 -6.52104
1 -2.55167 -8.74927 -6.85081
1 -1.89092 -9.36108 -6.487
1 -0.889578 -9.15867 -6.67523
1 -0.933037 -9.65126 -5.89593
1 -0.333111 -9.62738 -5.10996
1 -0.531876 -10.2466 -4.41562
1 -0.494396 10.3402 -4.01804
1 0.729906 0.199007 -5.55505
1 1.34047 0.0432054 -4.89888
1 1.49544 0.218812 -4.0461
1 1.36291 1.15154 -4.16005
1 0.834756 1.93439 -4.43308
1 0.18625 2.05476 -5.14524
1 0.72034 2.04097 -5.87963
1 0.315267 1.49444 -6.63847
1 0.82987 0.711285 -6.55996
1 1.76828 0.442479 -6.49744
1 7.46992 5.88146 2.33333
1 8.25325 5.22276 2.34358
1 9.12249 5.36136 1.82984
1 9.26503 4.57294 1.31795
1 9.90141 4.12786 0.72511
1 10.3986 3.47983 1.23426
1 -10.1635 3.90615 1.28693
1 -9.45732 4.52609 1.41718
1 -10.0182 5.00939 0.812454
1 10.5062 5.04604 0.82743
1 2.94909 -8.90444 -8.6331
1 2.24989 -8.76183 -7.88709
1 1.28715 -8.68357 -7.62284
1 0.638553 -9.2218 -8.00379
1 -0.306629 -9.36813 -7.88968
1 0.0920922 -8.64264 -7.36639
1 0.177022 -7.77605 -7.74681
1 -0.758261 -7.64757 -7.84601
1 -0.916917 -8.53819 -7.66412
1 -1.62824 -8.19442 -8.15961
1 -7.63728 -7.4511 8.01424
1 -8.12478 -7.26085 7.18737
1 -7.1302 -7.29342 6.98621
1 -6.91586 -8.00805 7.59871
1 -6.7791 -8.9581 7.51984
1 -6.46007 -9.38394 8.29743
1 -5.92354 -9.76759 9.03027
1 -5.28897 -10.115 8.35068
1 -5.7968 10.5458 8.63865
1 -6.15584 -10.3245 7.90599
1 -9.43578 7.20118 2.41179
1 -10.4162 7.57294 2.72239
1 -9.88445 7.31485 3.48988
1 -9.50364 8.16136 3.31902
1 -9.20233 8.43005 2.34099
1 -9.33679 7.84508 1.65306
1 -9.68653 7.05176 1.32637
1 -10.5304 7.32724 1.75134
1 10.3235 6.79544 2.33575
1 9.42031 6.50818 2.33261
1 -5.12395 9.74381 -6.08772
1 -5.25454 9.86039 -7.08248
1 -5.047 9.73167 -7.97812
1 -5.40669 8.90806 -7.75243
1 -6.33799 8.90311 -7.44981
1 -7.2512 8.68949 -7.00476
1 -6.45303 8.5269 -6.36252
1 -5.64898 8.22425 -5.8676
1 -5.3037 8.85217 -6.60034
1 -5.30662 7.91228 -7.00553
1 10.3289 -0.979444 8.86322
1 9.97763 -0.881447 9.70136
1 10.0483 -1.84854 9.58813
1 9.81525 -2.1608 8.71901
1 9.16985 -2.17442 9.49057
1 8.53786 -2.37447 10.1594
1 9.25246 -2.56165 -10.698
1 8.99082 -3.50929 -10.6553
1 8.55857 -3.07017 -9.94526
1 8.79427 -3.68801 -9.21733
1 10.5439 -7.36907 7.37476
1 10.7182 -7.78994 6.47996
1 10.6916 -8.65004 6.109
1 -10.7131 -8.95065 7.04153
1 10.7128 -8.29561 7.78712
1 9.88283 -8.72753 7.41621
1 9.44526 -8.02544 7.90821
1 8.93633 -8.40449 7.22523
1 8.81482 -8.8016 6.31774
1 9.67494 -9.07948 6.44086
1 2.51297 -9.38288 4.26048
1 2.68625 -9.20186 5.22965
1 2.56335 -10.1558 5.20615
1 3.22766 -10.484 4.58652
1 2.64041 10.2986 4.86501
1 2.63438 10.218 3.88829
1 1.78476 10.0537 4.39227
1 1.56992 10.626 3.66158
1 2.20017 -10.44 4.29811
1 1.63896 -10.5298 5.0319
1 5.90841 9.97696 -8.85244
1 6.58092 9.20697 -8.72657
1 6.80957 9.79336 -9.45645
1 7.44999 9.16719 -9.98826
1 7.85704 8.98844 10.582
1 8.64164 8.63516 -10.3556
1 8.61947 9.63295 -10.1307
1 8.37825 10.5835 -10.0459
1 7.39434 10.3054 -10.2251
1 7.4588 -10.7215 10.3342
1 3.57182 -10.127 2.52154
1 2.95142 -9.74482 3.15121
1 2.76881 -8.80874 3.41184
1 2.87621 -7.90628 3.16054
1 3.51559 -7.22189 3.07203
1 3.03764 -6.42426 2.96619
1 2.38305 -6.12529 3.68514
1 2.48069 -7.02573 3.89964
1 2.56297 -7.68996 4.57658
1 1.99687 -8.51573 4.76866
1 8.56004 1.27995 -1.3343
1 7.86381 0.656853 -1.77106
1 7.73006 0.978122 -2.67887
1 7.25596 0.5982 -3.51404
1 7.09444 0.400827 -4.45305
1 7.67156 0.519353 -5.13703
1 7.47473 1.49034 -5.02015
1 7.875 1.19272 -4.15974
1 8.43878 0.475708 -4.43608
1 8.38662 0.547463 -3.47391
1 -1.5259 -0.631693 6.54051
1 -0.728417 -0.834807 5.98855
1 -1.31925 -1.55242 5.86963
1 -0.364343 -1.79627 5.74705
1 0.535104 -1.71549 5.8814
1 0.609288 -2.04484 6.78708
1 -0.0201719 -2.70805 6.34991
1 -0.159839 -3.67256 6.47576
1 -0.336284 -3.20293 7.34246
1 -0.743106 -3.83032 8.0566
1 10.3823 3.90415 10.2793
1 9.81742 3.72545 -10.4109
1 9.4375 3.19848 -9.57444
1 8.74472 3.78195 -9.8959
1 8.28314 2.98223 -9.61778
1 7.4211 2.50227 -9.27562
1 6.48633 2.55199 -9.44117
1 5.83235 1.81149 -9.54762
1 6.58736 1.30549 -9.87001
1 7.31258 1.85376 -10.2628
1 0.123693 1.65195 -8.90174
1 0.930038 1.96702 -9.38205
1 0.877423 2.85519 -9.73409
1 -0.0751742 2.71856 -9.74532
1 0.0203871 1.78786 -10.0492
1 -0.199641 1.78685 10.4438
1 0.797672 2.02363 10.4364
1 1.71953 2.11753 10.3176
1 1.55033 2.86812 -10.606
1 1.92975 2.47965 -9.85099
1 3.4682 0.498671 0.558541
1 3.31089 -0.0291991 -0.204707
1 2.64032 -0.425053 -0.749346
1 2.39003 -0.545874 -1.63124
1 3.1492 -1.13743 -1.6616
1 2.94659 -1.52501 -0.763018
1 3.41817 -2.33391 -0.874758
1 2.97574 -3.18845 -1.16034
1 2.17469 -3.33464 -0.684239
1 1.92997 -2.34855 -0.737903
1 -5.38461 -0.516633 -3.60495
1 -4.62656 -1.10014 -3.88706
1 -5.50165 -1.43973 -4.02388
1 -5.60513 -1.58688 -3.1072
1 -5.70189 -2.56389 -2.96817
1 -5.36115 -3.41353 -2.62615
1 -5.91443 -4.23483 -2.50993
1 -5.12367 -4.39996 -3.03447
1 -4.40148 -4.61981 -3.60528
1 -4.11866 -5.16499 -2.87854
1 3.82538 -8.45317 3.38059
1 4.04477 -9.32246 3.10209
1 4.69203 -9.01118 3.65564
1 4.88011 -8.93338 2.69503
1 4.67941 -9.63651 1.93341
1 5.3424 -10.2655 1.90137
1 5.8741 10.5925 2.47938
1 6.37252 -10.0507 2.73468
1 5.81757 -9.41702 2.31161
1 6.51119 -8.78036 2.54526
1 7.60269 6.16963 8.08766
1 6.62089 6.21961 8.06887
1 5.90065 5.68069 8.22872
1 5.0928 5.85132 8.74726
1 4.29485 6.52852 8.52489
1 3.47777 6.20863 8.88342
1 2.78752 5.66019 9.27426
1 2.41276 5.84325 8.40159
1 1.53321 6.15314 8.43326
1 0.845578 5.48446 8.32742
1 6.05471 -3.03805 3.96826
1 5.90291 -2.67169 3.02465
1 5.36867 -3.49892 2.88845
1 5.59128 -3.57142 1.96997
1 6.35159 -4.1825 2.04852
1 7.1804 -4.40931 2.55092
1 7.56616 -4.15423 1.65338
1 6.88262 -4.43118 1.06753
1 6.79892 -3.45302 1.13236
1 6.91318 -2.71966 0.551761
1 -3.07239 -9.24851 7.67176
1 -3.89315 -9.28284 7.09892
1 -4.04348 -9.74381 6.30078
1 -4.15736 -10.6212 5.81788
1 -3.99734 10.489 6.68021
1 -3.13709 10.5544 6.30997
1 -2.50096 -10.1953 6.03571
1 -2.93748 -10.3972 5.19862
1 -3.71622 -10.2089 4.68946
1 -3.17259 10.7206 4.0935
1 5.29778 4.68553 0.62036
1 5.35898 3.76942 0.978184
1 5.39572 4.23254 1.76411
1 6.17298 4.49736 1.17667
1 6.56687 5.26023 0.701952
1 6.96717 5.88033 1.41664
1 7.49748 6.64126 1.03508
1 8.45516 6.80105 1.07603
1 8.45956 6.31281 1.93004
1 8.35096 5.64682 1.2206
1 0.986677 -4.29459 4.75769
1 1.46988 -3.54329 5.08197
1 0.88511 -2.95327 4.50487
1 1.72067 -3.26519 4.10529
1 1.99861 -3.50196 3.16868
1 2.73623 -3.0373 3.73597
1 2.27687 -2.34841 4.23061
1 2.2169 -2.31151 5.20833
1 1.52752 -1.68173 5.35989
1 0.764697 -1.53744 4.85169
1 -9.3039 -0.0552136 8.01251
1 -9.74686 0.779298 8.0736
1 -9.68493 1.70518 8.27846
1 -9.59119 2.36899 7.5231
1 -8.60471 2.29573 7.76921
1 -7.9705 1.51006 7.75487
1 -7.96502 1.49241 8.69491
1 -8.24793 2.30247 9.03593
1 -8.97899 2.54184 9.62223
1 -9.19336 2.689 8.69687
1 0.25252 -2.70045 9.34794
1 0.230186 -3.73826 9.18935
1 -0.617013 -4.13396 9.29768
1 -0.867132 -3.3532 9.81354
1 -1.31961 -4.23126 9.9502
1 -1.92716 -3.64822 10.434
1 -2.26449 -4.04328 9.58482
1 -1.5918 -3.65028 8.98052
1 -1.44031 -2.71031 8.97698
1 -2.22715 -2.27135 9.2107
1 -1.2079 5.62164 9.81021
1 -1.66055 5.09517 10.4982
1 -0.710511 4.83177 -10.6953
1 -1.20719 5.15764 -9.95594
1 -1.09756 5.99534 -10.4376
1 -0.893854 6.48889 10.2815
1 -0.874635 7.22144 -10.4696
1 -1.75252 6.9516 10.6553
1 -2.22701 7.55158 10.0351
1 -1.69567 7.1646 9.35161
1 -10.6099 9.08636 -4.90652
1 10.5104 9.41678 -5.76068
1 10.5727 10.2214 -6.21435
1 10.6983 9.46286 -6.82511
1 9.72812 9.52216 -6.84632
1 9.28892 9.69596 -5.97941
1 9.87906 10.1018 -5.38124