units 		lj
dimension 	3

#atom_style	bond
# if there are angular potentials, use next line
atom_style	angle
angle_style	cosine

read_data t1.2p0.0n8000npt.lmp
  orthogonal box = (-10 -10 -10) to (10 10 10)
  2 by 2 by 2 MPI processor grid
  reading atoms ...
  8000 atoms
  reading velocities ...
  8000 velocities
  scanning bonds ...
  1 = max bonds/atom
  scanning angles ...
  1 = max angles/atom
  reading bonds ...
  7200 bonds
  reading angles ...
  320 angles
  2 = max # of 1-2 neighbors
  2 = max # of 1-3 neighbors
  4 = max # of 1-4 neighbors
  6 = max # of special neighbors
  special bonds CPU = 0.00112891 secs
  read_data CPU = 0.03672 secs

pair_style	lj/cut	2.5
#when using global * * the cutoff should be the smallest of all possible pairs
pair_coeff	* *	1.0 1.0 2.5  #final 2.5 is redundant here; can override global
pair_modify	shift	yes

bond_style	fene
bond_coeff	1	30 1.5		1.0 1.0
special_bonds fene
  2 = max # of 1-2 neighbors
  6 = max # of special neighbors
  special bonds CPU = 0.000438929 secs

angle_coeff 	1 ${k}
angle_coeff 	1 2

fix	1	all npt	temp 1.2 1.2 1.0   iso 0.0 0.0 5.0
#starting temperature/ending Temperature/Tdamp
fix cmvel all momentum 1000 linear 1 1 1

thermo_style custom step ke pe etotal epair ebond eangle press temp lx vol
thermo 1000

dump 1 all xyz	1000	dump{$k}.xyz
dump 1 all xyz	1000	dump{2}.xyz

restart 1000 t1.2p0.0n8000npt-1.res 0.5p0.0n8000npt-2.res

#run_style respa 2 3 bond 1 pair 2
#timestep 0.006

timestep 0.002

run 10000000
Neighbor list info ...
  update every 1 steps, delay 10 steps, check yes
  max neighbors/atom: 2000, page size: 100000
  master list distance cutoff = 2.8
  ghost atom cutoff = 2.8
  binsize = 1.4, bins = 15 15 15
  1 neighbor lists, perpetual/occasional/extra = 1 0 0
  (1) pair lj/cut, perpetual
      attributes: half, newton on
      pair build: half/bin/newton
      stencil: half/bin/3d/newton
      bin: standard
WARNING: Inconsistent image flags (../domain.cpp:785)
Per MPI rank memory allocation (min/avg/max) = 6.496 | 6.516 | 6.649 Mbytes
Step KinEng PotEng TotEng E_pair E_bond E_angle Press Temp Lx Volume 
       0   0.48448444    12.741828    13.226312   -5.6481987    18.329377  0.060649204   -1.5880033   0.32303001           20         8000 
    1000   0.71556281    12.743145    13.458707   -5.7059821    18.391673  0.057453313 0.0043334411   0.47710151    19.835369    7804.0645 
    2000   0.90065857    12.967673    13.868332   -5.5336808    18.446588  0.054765593   0.12446811   0.60051411    19.960121    7952.2407 
    3000    1.0864819     13.29502    14.381502   -5.2650141    18.509396  0.050638181  0.068071488   0.72441183    20.160469    8194.1121 
    4000    1.2832516    13.683138    14.966389    -4.940644     18.57444  0.049341497   0.21792093     0.855608    20.408385    8500.1369 
    5000    1.4850554    14.094079    15.579135   -4.6025165     18.64818  0.048415522   0.36044619   0.99016068    20.704526    8875.5617 
    6000    1.7131861    14.434978    16.148164    -4.315798     18.70645  0.044325943   0.22421306    1.1422669    21.000195    9261.2581 
    7000    1.8269338    14.705904    16.532838   -4.0911641    18.749357  0.047711601   0.23804359    1.2181081    21.269988     9622.806 
    8000    1.8139589    14.804049    16.618008   -3.9859217    18.746547   0.04342322 0.00042714345    1.2094571    21.416823    9823.4746 
    9000    1.7778196     14.75627     16.53409   -4.0075672    18.719295  0.044541986 -0.064282116    1.1853612    21.393399    9791.2781 
   10000    1.8065881    14.745311      16.5519   -4.0233174    18.726956  0.041673204 -0.011529135    1.2045426    21.397593    9797.0377 
   11000    1.8028347    14.786307    16.589141   -3.9854551    18.729265  0.042496754 -0.088118555    1.2020401    21.431209    9843.2833 
   12000    1.7956322    14.781614    16.577246   -3.9926045    18.731905  0.042313397  0.063682077    1.1972378    21.412442    9817.4483 
   13000    1.7928175    14.739919    16.532736   -4.0361495    18.734376  0.041692184  0.033583373    1.1953611    21.391414    9788.5526 
   14000    1.7997162    14.755391    16.555107   -4.0153935    18.727921  0.042864195  -0.21245232    1.1999608    21.380308     9773.314 
   15000    1.7982017     14.78076    16.578962   -3.9901767    18.728072  0.042865285  0.020847445     1.198951    21.414863    9820.7786 
   16000     1.805371    14.777766    16.583137   -3.9961866    18.734585  0.039367303 -0.019226423    1.2037311    21.427901    9838.7265 
   17000    1.7958539    14.791598    16.587452    -3.985246    18.735456  0.041388266 -0.053186619    1.1973856     21.42848    9839.5244 
   18000     1.809375       14.749    16.558375   -4.0121267    18.720424  0.040702361   0.10417396    1.2064008    21.412892    9818.0672 
   19000    1.8283696    14.728982    16.557351    -4.038939    18.726454  0.041466915  0.082660743    1.2190654    21.366634    9754.5746 
   20000    1.7840167    14.747566    16.531583   -4.0185691    18.726226  0.039909521 -0.071630255    1.1894932    21.411491    9816.1393 
   21000    1.8331049    14.770388    16.603493   -4.0180453    18.743297  0.045135736  0.087094602    1.2222227    21.391916    9789.2416 
   22000    1.7814414    14.786214    16.567656   -3.9810561    18.725571  0.041699855 -0.033513233    1.1877761     21.44941    9868.3847 
   23000    1.8068595     14.75616     16.56302    -4.031621    18.746128  0.041652927   0.11385764    1.2047236    21.375628    9766.8976 
   24000    1.7755737    14.781224    16.556798   -3.9798725    18.720272  0.040824443  -0.18822539    1.1838638    21.454252    9875.0685 
   25000    1.8156379    14.806154    16.621792   -3.9653687    18.729352  0.042170276 0.0015050448    1.2105766    21.447937    9866.3513 
   26000    1.7976827    14.776317    16.573999   -3.9849093    18.719506   0.04171986 -0.0097165748     1.198605    21.424791    9834.4438 
   27000    1.7790715    14.769394    16.548465   -3.9865397    18.716148  0.039785442  0.076267178    1.1861959    21.420624    9828.7065 
   28000     1.799933    14.790348    16.590281   -3.9810142     18.73101  0.040352643  0.044313407    1.2001054    21.413701    9819.1802 
   29000    1.7693057     14.80222    16.571526   -3.9695363    18.730992  0.040764382  -0.12569805    1.1796846    21.443695    9860.4989 
   30000    1.8229928    14.765375    16.588367   -4.0112309    18.737176  0.039429778  -0.15849263    1.2154805    21.405562    9807.9872 
   31000    1.7594794    14.788148    16.547628   -3.9819265    18.729414  0.040660373  0.051334412    1.1731329    21.430936    9842.9073 
   32000    1.8269465    14.767516    16.594462   -3.9978966    18.724266  0.041145934  0.075466617    1.2181166    21.396019    9794.8754 
   33000    1.7786168     14.77416    16.552777    -3.998684    18.736181   0.03666294 -0.073133466    1.1858928     21.42842    9839.4417 
   34000    1.7912904    14.752948    16.544238   -4.0256195    18.738325  0.040242772   0.13904652    1.1943429     21.35074    9732.8226 
   35000     1.774983     14.76412    16.539103   -4.0031037    18.727889  0.039334832 -0.026925858      1.18347    21.419335    9826.9317 
   36000    1.8346506    14.771534    16.606185   -3.9996275    18.731586  0.039575633  0.068324931    1.2232533    21.411532    9816.1955 
   37000    1.7903512    14.785058    16.575409   -3.9769008    18.720743  0.041216197  0.028382054    1.1937167    21.458546    9880.9997 
   38000    1.8269283    14.758494    16.585422   -3.9956468    18.713146  0.040994176   0.10270411    1.2181045    21.404284    9806.2307 
   39000    1.7771715     14.76232    16.539492     -4.01032    18.731833  0.040807607 -0.026985915    1.1849291    21.423542    9832.7232 
   40000    1.8229398    14.749171    16.572111   -4.0228118    18.727247  0.044736122 -0.0042483422    1.2154451    21.384414    9778.9461 
   41000     1.783376     14.79031    16.573686   -3.9850601     18.73398  0.041390622  0.068316501     1.189066     21.44102    9856.8084 
   42000    1.8082028    14.782836    16.591039   -4.0061848    18.748899  0.040122117 -0.014174172    1.2056192    21.402639    9803.9701 
   43000    1.7749175    14.771166    16.546084   -4.0089724    18.738911  0.041227685  -0.10611804    1.1834262    21.430112    9841.7726 
   44000    1.8258017     14.76152    16.587321   -4.0114358    18.733129  0.039826089 -0.0063868288    1.2173533    21.389704    9786.2049 
   45000    1.7868344    14.771613    16.558448   -4.0066264      18.7403  0.037939662  0.001093184    1.1913718    21.426641    9836.9905 
   46000    1.8164463    14.744015    16.560461   -4.0212886    18.727109  0.038194688  -0.02826601    1.2111156    21.393905    9791.9726 
   47000    1.8007711    14.747651    16.548422   -4.0282292    18.738269   0.03761116 -0.0032387836    1.2006642    21.374101    9764.8052 
   48000    1.7762242    14.770497    16.546721   -4.0019942    18.733485  0.039005904   0.12614485    1.1842975    21.420659    9828.7541 
   49000    1.8189834    14.812733    16.631717   -3.9598564    18.732674  0.039915957  0.046610803    1.2128072    21.456195     9877.752 
   50000    1.7842407    14.822798    16.607039   -3.9389605    18.726692  0.035065951 -0.028468996    1.1896425    21.493034    9928.7183 
   51000    1.8142374    14.773882     16.58812   -3.9918938    18.724643  0.041132483  0.061659126    1.2096428    21.405753    9808.2501 
   52000    1.7934418      14.7311    16.524542   -4.0354755    18.724606  0.041969544  0.013532526    1.1957774    21.369542    9758.5582 
   53000    1.7931445    14.740639    16.533783   -4.0247952    18.726627  0.038807047  0.042122019    1.1955791    21.382779    9776.7038 
   54000    1.7898388    14.803718    16.593557   -3.9794298    18.743769  0.039379143 -0.063578151     1.193375    21.449691    9868.7726 
   55000    1.8278189    14.798898    16.626717    -3.972477    18.731767  0.039608314 -0.087326858    1.2186983    21.455893    9877.3353 
   56000    1.7976178    14.745031    16.542649   -4.0018644    18.708322  0.038573289 -0.019356446    1.1985617    21.407914    9811.2204 
   57000     1.770319    14.766323    16.536642   -3.9809395    18.708109  0.039153091  -0.07378799    1.1803602    21.437129    9851.4432 
   58000    1.8128363    14.826278    16.639115   -3.9591177    18.748656  0.036739867  0.054397515    1.2087086    21.457245     9879.202 
   59000    1.7894525    14.788063    16.577516   -3.9651003    18.716672  0.036491355    0.0349103    1.1931175    21.450012    9869.2148 
   60000    1.7982483    14.743497    16.541745   -4.0217964    18.726233  0.039060618   0.12450424    1.1989821    21.365432     9752.929 
   61000    1.7917314    14.751497    16.543229   -4.0051084     18.71845  0.038155505 -0.010126698    1.1946369    21.400627    9801.2058 
   62000    1.8124665    14.757609    16.570076   -4.0126695    18.731113  0.039165419   0.12698999    1.2084621    21.387164      9782.72 
   63000    1.7770239    14.781349    16.558373   -3.9900642    18.731892  0.039521202  0.065960616    1.1848307    21.431659    9843.9043 
   64000    1.7960388    14.777511    16.573549   -4.0004634     18.73696  0.041014194   0.25045574    1.1975089    21.397617    9797.0705 
   65000    1.7799911    14.782545    16.562536   -3.9904653    18.730818  0.042192641   0.18118241    1.1868091    21.416884    9823.5582 
   66000    1.8007799    14.800435    16.601215   -3.9773599    18.737254  0.040541037   0.13986213      1.20067    21.449666    9868.7373 
   67000    1.7947641    14.799115     16.59388   -3.9831891    18.742133  0.040171157 -0.038615254     1.196659    21.438665    9853.5617 
   68000    1.7901759    14.771658    16.561834   -3.9854219    18.718115  0.038964504  -0.14610261    1.1935998    21.437849    9852.4358 
   69000    1.8017309    14.784098    16.585829   -3.9889102    18.732906  0.040102087 -0.074514447    1.2013041    21.413694    9819.1702 
   70000    1.7813029    14.764014    16.545317   -3.9943011    18.718482  0.039833781  0.022634204    1.1876837    21.414792    9820.6807 
   71000    1.7910618    14.764237    16.555299   -4.0078674    18.733677  0.038427088 -0.075735603    1.1941905    21.399075    9799.0727 
   72000    1.8054309    14.780461    16.585892   -3.9969629    18.741209    0.0362148  0.056659731    1.2037711    21.424838    9834.5075 
   73000    1.8131287    14.748199    16.561328   -4.0041367    18.715205  0.037131309   0.04423053    1.2089036    21.406803    9809.6936 
   74000    1.7691733    14.764872    16.534045   -3.9955138    18.723545  0.036841461 -0.090180693    1.1795963    21.413067    9818.3079 
   75000    1.8319885    14.774612      16.6066   -3.9917032    18.728363  0.037952289  -0.19390261    1.2214784    21.427529    9838.2145 
   76000    1.8012749    14.772192    16.573467   -3.9924097    18.725782  0.038819549  -0.05814719    1.2010001    21.431929     9844.276 
   77000    1.8046852    14.779529    16.584214   -4.0020802    18.740125   0.04148432 0.0093895962    1.2032739    21.403876    9805.6701 
   78000    1.7848485    14.760067    16.544915   -4.0038358    18.724609  0.039293118  0.098335365    1.1900477    21.414781    9820.6653 
   79000    1.8163811    14.743704    16.560085   -4.0209887    18.728824  0.035869247  0.044355293    1.2110721    21.380229    9773.2064 
   80000    1.8028674     14.77067    16.573538   -4.0038911    18.733833  0.040728963  -0.20062303    1.2020619    21.431854    9844.1725 
   81000    1.7842196    14.808051    16.592271   -3.9829559    18.753479   0.03752757 -0.048737851    1.1896284     21.41605    9822.4115 
   82000    1.8053478    14.751471    16.556819   -3.9967736    18.707917  0.040328273   0.18070041    1.2037157    21.428719    9839.8531 
   83000    1.7881954    14.754793    16.542988   -4.0184521    18.732562  0.040682567 -0.042252107    1.1922793    21.377016    9768.8005 
   84000    1.7975492    14.755834    16.553383   -4.0061138    18.721988  0.039959751  -0.17757611     1.198516    21.413657    9819.1195 
   85000    1.8012473    14.779241    16.580489   -3.9918029     18.73476  0.036284263  0.023604231    1.2009816    21.445306    9862.7203 
   86000    1.7911354     14.78041    16.571545   -3.9983248    18.741982  0.036752925  0.064473372    1.1942395    21.415757    9822.0083 
   87000    1.8020431    14.741057    16.543101   -4.0088806    18.713354  0.036583868 -0.090137953    1.2015123    21.405742    9808.2345 
   88000     1.799597    14.779392     16.57899   -3.9952132    18.736678  0.037928027   0.16964345    1.1998813    21.403314    9804.8983 
   89000    1.8020467    14.824985    16.627031   -3.9632748    18.748311  0.039948097  0.069851914    1.2015147    21.453238     9873.669 
   90000    1.8083346     14.79028    16.598614   -3.9812382    18.732424  0.039093891 -0.037889936    1.2057071    21.454278    9875.1049 
   91000    1.8175092    14.739735    16.557245   -4.0093351    18.710574  0.038496708   0.12400509    1.2118243    21.397343    9796.6947 
   92000    1.8007728    14.754098    16.554871   -4.0033724    18.718714  0.038756144  0.085799535    1.2006653       21.417    9823.7186 
   93000    1.7917025    14.795713    16.587416   -3.9762569    18.728996  0.042973956  0.099981345    1.1946177    21.444603     9861.751 
   94000    1.8118528    14.809268    16.621121   -3.9787598    18.745663  0.042364732 -0.070947873    1.2080529    21.457274    9879.2422 
   95000    1.8196466    14.761585    16.581231   -4.0161561     18.73692  0.040820135 -0.027114797    1.2132494    21.404682    9806.7784 
   96000    1.7916205    14.769028    16.560648    -4.007385    18.737941  0.038472171 -0.057164368     1.194563    21.407451    9810.5845 
   97000    1.7916615    14.762852    16.554513   -3.9986737    18.723532  0.037993749 -0.071761481    1.1945903    21.422334    9831.0607 
   98000    1.8266449    14.776857    16.603502   -3.9963998    18.733208  0.040048709  -0.16348365    1.2179155    21.419657    9827.3751 
   99000    1.7756008    14.780156    16.555757   -3.9870397    18.724867  0.042329059  0.088673865    1.1838818    21.413166     9818.443 
  100000     1.828652    14.722641    16.551293   -4.0412737    18.723854  0.040060263   0.25798516    1.2192537    21.355838    9739.7952 
  101000    1.7838357    14.757819    16.541655   -4.0107849    18.729974  0.038629967   -0.1361661    1.1893724    21.429621    9841.0958 
  102000    1.8102147    14.783109    16.593324   -3.9761093    18.718228  0.040990825  0.058720682    1.2069607     21.43112    9843.1619 
  103000    1.7872164    14.804908    16.592125    -3.968036    18.731735  0.041209888 -0.027009007    1.1916266    21.450662    9870.1119 
  104000    1.8087953    14.778831    16.587626   -3.9971289    18.737459  0.038500582   0.24290309    1.2060143     21.40782    9811.0915 
  105000    1.7733988    14.775051     16.54845    -4.009394    18.746713  0.037731779  -0.11611507    1.1824137    21.389332    9785.6951 
  106000    1.7635469    14.743736    16.507283   -4.0197642    18.724964  0.038536288  0.062637252    1.1758449    21.373479    9763.9525 
  107000    1.7874282    14.756878    16.544306   -4.0167893    18.733989  0.039677839 -0.0045400967    1.1917678    21.403696    9805.4225 
  108000     1.817943    14.749244    16.567187   -4.0158192    18.727396  0.037666605  0.063667254    1.2121135    21.404971    9807.1751 
  109000    1.7977043    14.768825    16.566529   -3.9993014    18.731268  0.036858133    0.1193482    1.1986194    21.414468    9820.2351 
  110000     1.807514    14.778965    16.586479   -4.0002325    18.743436  0.035761897  0.017545677      1.20516    21.416179    9822.5885 
  111000     1.789135    14.760645     16.54978   -4.0207889    18.744394  0.037039458  -0.11037458    1.1929058    21.380578    9773.6852 
  112000    1.7684991    14.744046    16.512546   -4.0106412    18.717108  0.037579294 -0.039559416    1.1791468    21.382821    9776.7612 
  113000    1.7683591    14.772833    16.541193   -3.9965719     18.73268  0.036725704  0.094814259    1.1790535    21.403395    9805.0094 
  114000    1.7844595    14.799738    16.584197    -3.977459    18.735997  0.041199624  0.068813941    1.1897884    21.421787    9830.3077 
  115000     1.806099    14.781567    16.587666   -3.9746006    18.716688  0.039478972  -0.13762192    1.2042165    21.460937    9884.3022 
  116000    1.7764107    14.757686    16.534097   -4.0152134      18.7341  0.038799443  0.095491376    1.1844218    21.375767    9767.0883 
  117000    1.7698883    14.736027    16.505915   -4.0286275    18.727653  0.037001366  -0.13863999     1.180073    21.376678    9768.3371 
  118000     1.821249    14.730133    16.551382   -4.0248618    18.717866  0.037128543 -0.081998349    1.2143178    21.401449    9802.3344 
  119000    1.8070112    14.779848    16.586859    -3.990731    18.730446  0.040132616   0.11032902    1.2048247    21.403157     9804.682 
  120000    1.7710922    14.765432    16.536525   -3.9940494    18.722028  0.037454191  -0.15510961    1.1808758    21.447531    9865.7906 
  121000    1.8270483    14.749559    16.576607   -4.0219153    18.731333   0.04014156  0.059963563    1.2181845    21.391225    9788.2937 
  122000    1.7930152    14.767881    16.560896   -3.9928764    18.719727  0.041030471 -0.093763895    1.1954929    21.439028    9854.0614 
  123000    1.8065469    14.783762    16.590309   -3.9835406    18.725161  0.042141649   0.16123769    1.2045152    21.420506    9828.5433 
  124000    1.8006022    14.812709    16.613311   -3.9613253    18.735823  0.038210833    0.0664826    1.2005515    21.474634      9903.24 
  125000    1.7938856    14.801317    16.595203   -3.9673061    18.727672  0.040951644   0.09222369    1.1960733    21.431109    9843.1462 
  126000    1.7899037    14.762618    16.552522   -3.9993647    18.722946  0.039036923 -0.022606103    1.1934183    21.410933     9815.373 
  127000     1.824157    14.768797    16.592954   -3.9946595     18.72524  0.038217151  -0.13322703    1.2162567    21.419428    9827.0601 
  128000    1.8152936    14.824526    16.639819   -3.9618697    18.746441  0.039954633 -0.046037088     1.210347    21.466417     9891.876 
  129000    1.8093659     14.76857    16.577936   -3.9951884    18.725506  0.038252575 -0.052486667    1.2063947    21.416481    9823.0046 
  130000     1.780123     14.75566    16.535783    -4.027194    18.743996  0.038858359  -0.13352133     1.186897    21.386205    9781.4038 
  131000     1.786547    14.761406    16.547953   -4.0056046     18.73066  0.036350291  -0.09971577    1.1911802     21.38409    9778.5022 
  132000    1.7818148     14.77318    16.554995    -3.978864    18.715879  0.036165348  0.064549384     1.188025    21.439613    9854.8685 
  133000    1.7893225    14.790961    16.580284   -3.9852527    18.739592  0.036621487 0.0025029628    1.1930308    21.418434    9825.6917 
  134000    1.7893902     14.78921      16.5786   -3.9792148     18.73128  0.037144405  -0.16797363     1.193076    21.467403    9893.2402 
  135000    1.8159802    14.798319    16.614299   -3.9891726     18.74865  0.038841687 -0.059262696    1.2108048    21.420289    9828.2448 
  136000    1.8213585    14.751978    16.573337   -4.0045234    18.717383  0.039118252  -0.10689167    1.2143908    21.421583    9830.0265 
  137000    1.7746716    14.765868     16.54054   -3.9917219    18.717045  0.040545269  0.056573422    1.1832623    21.409653    9813.6116 
  138000    1.7961816    14.763088     16.55927     -3.99525    18.718574  0.039764565  -0.17938442    1.1976041    21.415361    9821.4634 
  139000    1.7868581     14.77221    16.559068   -4.0037804    18.737124  0.038866564 -0.094259527    1.1913876    21.411934    9816.7491 
  140000    1.8067797    14.798052    16.604832   -3.9738282    18.733496  0.038384121  0.066608041    1.2046704    21.443477    9860.1979 
  141000    1.7938415    14.810211    16.604053   -3.9633193    18.733314  0.040216707 -0.033599221    1.1960438    21.461298    9884.8015 
  142000     1.770978    14.770684    16.541662   -3.9956476    18.726053  0.040278367   0.11726479    1.1807996    21.410259    9814.4448 
  143000    1.7655447    14.770641    16.536186   -4.0065339    18.737685  0.039490443  0.029233147    1.1771769    21.392342     9789.826 
  144000    1.7915902    14.794212    16.585802   -3.9753668    18.730261  0.039317626  -0.12694542    1.1945428    21.434073     9847.231 
  145000    1.8083383     14.77441    16.582749   -4.0000345    18.735187   0.03925748   0.16446068    1.2057096    21.422062    9830.6859 
  146000    1.7677161     14.76234    16.530056   -3.9996651    18.719875  0.042130253   0.19195149    1.1786248    21.388972    9785.2003 
  147000    1.8019051    14.777918    16.579823   -3.9818974    18.718605  0.041210443   0.08347139    1.2014202    21.413723    9819.2099 
  148000    1.7983825    14.800071    16.598453   -3.9662184    18.726126  0.040162969   0.17625904    1.1990716    21.443531    9860.2719 
  149000    1.8073991    14.748611     16.55601   -4.0139714    18.721098  0.041484697  -0.24470568    1.2050833    21.416265    9822.7072 
  150000     1.803361    14.732131    16.535492   -4.0319067    18.721287  0.042750431  0.060525659     1.202391    21.381067    9774.3553 
  151000    1.8289178    14.778636    16.607554   -3.9816765    18.720116  0.040196923  -0.20529203    1.2194309    21.440668    9856.3235 
  152000    1.8079615    14.767272    16.575233   -3.9948653    18.722785  0.039351896  -0.12539202    1.2054584    21.458986    9881.6077 
  153000    1.7928959    14.751992    16.544888   -4.0071681     18.71969  0.039469515   0.10352129    1.1954134    21.381361    9774.7582 
  154000    1.7792378    14.710202     16.48944    -4.025145    18.698846   0.03650165 0.0010988644    1.1863068    21.369302    9758.2295 
  155000    1.7965918    14.745643    16.542235   -4.0138068    18.721552  0.037897566  0.093159819    1.1978776    21.380455    9773.5157 
  156000    1.7867341    14.789757    16.576491   -4.0012324    18.752628  0.038361017  -0.18341294     1.191305    21.429017    9840.2643 
  157000    1.7940374    14.784985    16.579022   -3.9956017    18.742622  0.037964157   -0.0879569    1.1961745    21.409518    9813.4262 
  158000    1.8114173    14.727914    16.539331   -4.0280699    18.719716  0.036268261  0.087627081    1.2077625    21.381612    9775.1028 
  159000    1.8002234    14.765813    16.566036   -4.0009718    18.727827   0.03895738   0.12464017     1.200299    21.406245     9808.927 
  160000    1.8159092    14.787545    16.603454   -3.9845512    18.736737  0.035358873 -0.067542156    1.2107575    21.439946    9855.3282 
  161000    1.7867614    14.764671    16.551433      -3.9992    18.726377  0.037494366 -0.089898933    1.1913232    21.422834    9831.7486 
  162000    1.8207202    14.745473    16.566193   -4.0125891    18.722073  0.035988736   0.07339186    1.2139652    21.398323    9798.0396 
  163000    1.7835553    14.752378    16.535933   -4.0202245    18.736165  0.036437069 -0.085781275    1.1891855    21.403346    9804.9417 
  164000    1.8044138    14.765696     16.57011   -4.0010209    18.728603  0.038114675 -0.0023835234    1.2030929    21.412001    9816.8417 
  165000    1.8282506     14.76382     16.59207   -4.0072842    18.733083  0.038020721  -0.13110646    1.2189861    21.432979    9845.7234 
  166000    1.8096923    14.762033    16.571726    -3.994679    18.719961  0.036751237   0.12951844    1.2066124    21.422256    9830.9532 
  167000    1.8074553    14.774912    16.582367   -3.9999393    18.734934  0.039917652  0.074777704    1.2051208    21.405585     9808.019 
  168000    1.7995031    14.762905    16.562408   -4.0062324    18.731124  0.038014169 -0.0020879389    1.1998187    21.412356    9817.3301 
  169000    1.8170617      14.7584    16.575461   -4.0059387    18.725788  0.038550967   0.11340946    1.2115259      21.4016    9802.5424 
  170000    1.7629347    14.773711    16.536646   -3.9851861    18.720746   0.03815049 -0.012427216    1.1754368    21.448621     9867.295 
  171000    1.8163202    14.774231    16.590551   -3.9977022    18.732508  0.039425024  0.089943088    1.2110315    21.410545    9814.8384 
  172000    1.7880174    14.769034    16.557052    -3.993727    18.723626  0.039135106   -0.1735664    1.1921606    21.448767    9867.4964 
  173000     1.808841    14.789922    16.598763   -3.9928918    18.741648  0.041166072 -0.018268774    1.2060448    21.392699    9790.3161 
  174000    1.7815739    14.786078    16.567652   -4.0047654    18.747743  0.043100469 -0.0021113995    1.1878644    21.404347    9806.3169 
  175000    1.7856231    14.789437     16.57506   -3.9834134    18.734042  0.038808807 -0.006955299    1.1905643    21.431807    9844.1076 
  176000    1.8230081    14.802032     16.62504   -3.9832204    18.742915  0.042337208   0.16215405    1.2154907    21.427041    9837.5417 
  177000    1.7922581    14.779188    16.571446   -3.9799867    18.718799  0.040376302  -0.15713588    1.1949881    21.441151    9856.9888 
  178000    1.8259353    14.729429    16.555364   -4.0378144    18.727128   0.04011518   0.14374762    1.2174424    21.358804    9743.8545 
  179000    1.7832645    14.749473    16.532738   -4.0248325    18.734178  0.040127198  0.023507202    1.1889916    21.389033    9785.2841 
  180000     1.795058     14.77592    16.570978   -3.9951806    18.728931  0.042170048 -0.053925549    1.1968549    21.430069    9841.7139 
  181000    1.8010048    14.794689    16.595693   -3.9810489     18.73534  0.040397426 -0.021937054      1.20082    21.436433    9850.4833 
  182000    1.8498585    14.795058    16.644916   -3.9867114    18.744315  0.037453523 -0.010165686    1.2333932    21.449855    9868.9979 
  183000    1.7889262    14.796527    16.585453   -3.9699155    18.725161  0.041281571  0.097081453    1.1927665    21.443085    9859.6563 
  184000    1.7785892    14.770624    16.549214   -4.0064721    18.735777   0.04131896 -8.7079688e-05    1.1858744    21.415216    9821.2635 
  185000    1.8071099    14.769695    16.576805   -3.9959136    18.725604  0.040004054  0.021742126    1.2048905    21.408949    9812.6438 
  186000    1.8177863    14.788741    16.606527   -3.9730044    18.719502  0.042242439   0.13016153     1.212009    21.444107    9861.0673 
  187000    1.7871383    14.759703    16.546841   -4.0094924    18.729987  0.039208214  -0.05600733    1.1915745    21.405783    9808.2914 
  188000    1.7899606    14.764366    16.554327   -4.0030972    18.726829  0.040634245  -0.11712629    1.1934563    21.414179    9819.8371 
  189000    1.8221466     14.78536    16.607507   -3.9749478    18.719082  0.041226314   0.19686471    1.2149163    21.431935     9844.285 
  190000    1.7881349    14.801604    16.589739   -3.9719982    18.732271  0.041331168 -0.087031738    1.1922389    21.460569    9883.7945 
  191000    1.7843527    14.791815    16.576168   -3.9723211    18.724263  0.039873247   0.10086403    1.1897172    21.440225    9855.7125 
  192000    1.8040461    14.784258    16.588304   -3.9801902     18.72336  0.041088228 -0.0028092411    1.2028478    21.433683    9846.6931 
  193000    1.7812187     14.79091    16.572129   -3.9946663    18.742824  0.042752973  -0.08088344    1.1876276    21.429463    9840.8784 
  194000    1.8193075    14.758841    16.578148   -4.0038419    18.722679  0.040003831    0.1054892    1.2130233     21.40654    9809.3326 
  195000    1.7891497    14.783799    16.572948   -3.9773273    18.722885  0.038241071 -0.0047027692    1.1929156     21.44526    9862.6573 
  196000    1.7843332    14.790067      16.5744   -3.9956097    18.743526  0.042149971   0.13158521    1.1897042    21.392616    9790.2029 
  197000     1.762921     14.80367    16.566591   -3.9661165    18.728857  0.040929444   0.13823078    1.1754276    21.452658    9872.8684 
  198000    1.8203048    14.770882    16.591187   -3.9954531    18.724037  0.042297931 -0.0027323155    1.2136883    21.433784    9846.8328 
  199000    1.7892796    14.809916    16.599196    -3.960829     18.72947  0.041274922   0.03734133    1.1930022     21.45626    9877.8413 
  200000    1.7928691    14.779209    16.572078   -3.9695592     18.70939  0.039378969  0.032549507    1.1953955    21.452696    9872.9209 
  201000    1.7975288     14.75769    16.555219   -4.0069929    18.724519  0.040164176  -0.08437314    1.1985023    21.406393    9809.1298 
  202000    1.8045688    14.776468    16.581036   -3.9930784    18.727772  0.041773572 -0.067151821    1.2031962    21.423961    9833.2998 
  203000    1.8134733    14.788981    16.602454   -3.9756742    18.726959  0.037695472  0.080070225    1.2091333    21.441338    9857.2473 
  204000    1.7957615     14.77847    16.574232    -3.991489    18.731076  0.038883521  -0.13600941     1.197324    21.432288    9844.7712 
  205000    1.7915746     14.72764    16.519215   -4.0299562    18.719945  0.037651597   0.14384026    1.1945324    21.378927    9771.4211 
  206000    1.7895389    14.752668    16.542207     -4.02028     18.73266  0.040287593  0.066624217    1.1931751    21.409341    9813.1833 
  207000    1.8052853    14.771801    16.577086   -4.0092017    18.739738  0.041264712 -0.023673439     1.203674     21.41527    9821.3377 
  208000    1.7880007    14.775095    16.563095   -3.9908183    18.725731  0.040181981 -0.012053484    1.1921495    21.435148    9848.7128 
  209000     1.813228    14.737399    16.550628   -4.0198733    18.716989  0.040284084   0.11078697    1.2089698     21.37991    9772.7683 
  210000    1.7757165    14.771301    16.547018   -3.9848333    18.716889  0.039245992   0.18401624     1.183959    21.427628    9838.3511 
  211000    1.8019963    14.752766    16.554763   -4.0109273    18.722948  0.040745502   0.13839895     1.201481    21.381242    9774.5959 
  212000    1.8094183    14.749938    16.559356   -4.0129653    18.724045  0.038857944   0.03138017    1.2064297    21.407129    9810.1423 
  213000    1.8061896     14.76844    16.574629   -4.0086471    18.736188  0.040898728 -0.064489289    1.2042769    21.403455    9805.0922 
  214000    1.8043959    14.801413    16.605809   -3.9798805     18.73898  0.042313604  -0.10499828     1.203081    21.450992    9870.5677 
  215000    1.8220596    14.756167    16.578227   -4.0126187     18.72497   0.04381654 -0.0023018954    1.2148583    21.420098    9827.9828 
  216000    1.7778437    14.764411    16.542254   -4.0045146    18.729244  0.039681113   0.25875572    1.1853773      21.4033     9804.878 
  217000    1.8144719    14.783131    16.597603   -3.9861732    18.730855  0.038449166 -0.050169228    1.2097991    21.438334    9853.1049 
  218000    1.8027145    14.778254    16.580969   -3.9925243     18.73448  0.036298022   0.20028131    1.2019599    21.440287    9855.7984 
  219000    1.7966824      14.7426    16.539283   -4.0014504    18.702368  0.041682298   0.12776335     1.197938    21.407519    9810.6783 
  220000    1.7764006    14.726207    16.502607   -4.0327486     18.71702  0.041935177  0.060311903    1.1844151    21.354895    9738.5063 
  221000    1.7851244    14.784602    16.569726    -3.993156    18.738133  0.039624749  -0.09011561    1.1902317    21.423881    9833.1898 
  222000    1.8158506     14.75619    16.572041   -4.0202487    18.735098  0.041340524 -0.040671998    1.2107184    21.382419    9776.2091 
  223000    1.7736058    14.755456    16.529062   -4.0267248     18.74223  0.039951379   0.13922958    1.1825517    21.378804    9771.2522 
  224000    1.8012522    14.766421    16.567673     -4.01046    18.735345  0.041536114  0.054907449    1.2009849    21.399179    9799.2165 
  225000    1.8172695    14.796606    16.613875    -3.977229    18.732818  0.041016767  0.023339992    1.2116644    21.427413    9838.0541 
  226000    1.8048926    14.790163    16.595056   -3.9825577    18.733267  0.039454166 -0.075374931    1.2034122    21.429061    9840.3245 
  227000    1.7824839    14.784263    16.566746   -3.9888635    18.733658  0.039467625 -0.031729097    1.1884712    21.440802    9856.5082 
  228000    1.8081206    14.802018    16.610139   -3.9714779    18.733488  0.040008007  -0.17722965    1.2055645    21.443169    9859.7731 
  229000    1.8112485    14.806938    16.618186   -3.9592813    18.727278  0.038940716  0.047315737      1.20765    21.480526    9911.3937 
  230000    1.7996107    14.783781    16.583392   -3.9882374    18.731021  0.040997667   0.21789429    1.1998905    21.414483    9820.2556 
  231000    1.7770826    14.769609    16.546691    -3.991901    18.720305  0.041204664   0.07587212    1.1848698    21.429961    9841.5641 
  232000    1.8069531    14.780061    16.587014   -3.9966631    18.737435  0.039289578   0.32340635     1.204786    21.398278    9797.9783 
  233000    1.8136017    14.779054    16.592656   -3.9857654    18.725481  0.039338884   -0.0835329     1.209219    21.452319    9872.3999 
  234000    1.7783849    14.759829    16.538214   -4.0016411    18.723927  0.037542741   0.05920916    1.1857382    21.392321    9789.7981 
  235000    1.8030592    14.743875    16.546934   -4.0127804    18.720191  0.036464394 -0.081315868    1.2021897    21.389553    9785.9982 
  236000    1.8007807    14.794106    16.594887   -3.9791097    18.735525  0.037690286  0.059828809    1.2006706    21.441915    9858.0426 
  237000    1.8331433    14.808875    16.642018   -3.9541471    18.723758  0.039263547   0.03558337    1.2222483    21.462872    9886.9759 
  238000    1.8047103    14.775577    16.580287    -3.998911    18.736542  0.037945982 -0.0027050793    1.2032906    21.434709    9848.1077 
  239000    1.7833701    14.760274    16.543644   -3.9941602    18.717003  0.037430973  0.032373294    1.1890621    21.419844    9827.6321 
  240000    1.8005499    14.797217    16.597767    -3.979731    18.737306  0.039642601   0.15798124    1.2005167    21.426911    9837.3631 
  241000    1.8105237     14.76673    16.577253   -3.9938051    18.721743  0.038791875 -0.020152793    1.2071667    21.415004    9820.9722 
  242000    1.7920368    14.732903     16.52494    -4.026139    18.719178  0.039863855   0.21884326    1.1948406    21.359983    9745.4682 
  243000    1.7878671    14.763521    16.551388   -3.9958033     18.71993  0.039394595   0.11026806    1.1920604    21.424538    9834.0955 
  244000      1.82709    14.740205    16.567295   -4.0194101    18.722115  0.037499618  0.083023866    1.2182123     21.38766       9783.4 
  245000    1.7589104    14.752435    16.511346   -4.0083094    18.722098  0.038646687 -0.025333429    1.1727536    21.394107    9792.2496 
  246000    1.8220743    14.743688    16.565763    -4.016289     18.72115  0.038827957 0.0014320301     1.214868    21.398346    9798.0723 
  247000    1.7963893    14.784803    16.581192   -3.9795549    18.726195  0.038163016  -0.14397401    1.1977426    21.448191     9866.702 
  248000    1.8073007    14.789305    16.596606   -3.9690787    18.721597  0.036786558  -0.16335652    1.2050177    21.459472    9882.2789 
  249000    1.8098274    14.750905    16.560733   -4.0175938    18.726934  0.041565383 -0.043621514    1.2067024    21.400012    9800.3599 
  250000    1.7756638    14.730479    16.506143    -4.026193    18.716979  0.039693632  0.096537974    1.1839239    21.385687    9780.6932 
  251000    1.8157485    14.744987    16.560735   -4.0158751    18.720592  0.040270005 0.0039990155    1.2106503    21.392554    9790.1182 
  252000    1.8091264    14.754233    16.563359   -4.0072224    18.722739  0.038715914  0.011200325     1.206235    21.434091    9847.2561 
  253000    1.8129416    14.783588    16.596529   -3.9895359    18.733228  0.039895551   0.10992028    1.2087788    21.424605    9834.1867 
  254000    1.7957727    14.776913    16.572686   -3.9902832    18.726934   0.04026257  -0.12832484    1.1973315     21.44039    9855.9399 
  255000    1.8073731    14.766029    16.573402   -4.0059402    18.732729  0.039239855   0.12895446    1.2050661    21.404803    9806.9441 
  256000    1.7493957    14.780434     16.52983   -3.9919572    18.731372  0.041019386 -0.014513403    1.1664096    21.441785    9857.8642 
  257000    1.8121223     14.75994    16.572062   -4.0128576    18.732296   0.04050115  0.093712295    1.2082325    21.376479    9768.0638 
  258000    1.8079378    14.784825    16.592762   -3.9904238    18.733068   0.04217993  0.027428668    1.2054425    21.441399    9857.3316 
  259000    1.8101884     14.79565    16.605839   -3.9792395    18.730812  0.044077666  -0.03232589    1.2069431    21.440568    9856.1859 
  260000    1.7975348    14.774376    16.571911   -3.9958522    18.730976  0.039252024  -0.16754567    1.1985064    21.417935     9825.005 
  261000    1.8054156    14.744558    16.549974    -4.016259     18.72284  0.037977271  -0.11658817    1.2037609    21.422404     9831.157 
  262000    1.7959693    14.773836    16.569806   -3.9930194    18.726534  0.040321599  -0.14605529    1.1974626    21.427943     9838.784 
  263000     1.820393    14.780634    16.601027   -3.9785843     18.71769  0.041528291  -0.19079684     1.213747    21.442693    9859.1157 
  264000    1.8371068    14.797898    16.635005   -3.9739373    18.732021  0.039814151  0.019924776     1.224891    21.451223    9870.8875 
  265000    1.7882781    14.788648    16.576926    -3.986674    18.735531  0.039791308  0.026374647    1.1923344    21.419399    9827.0197 
  266000     1.792644    14.764439    16.557083   -3.9901829    18.713586  0.041035886  0.071557348    1.1952454    21.417759    9824.7637 
  267000    1.8066657    14.772048    16.578713   -4.0042799    18.737001  0.039326905 0.0095444727    1.2045944    21.403054    9804.5411 
  268000    1.8092945    14.784857    16.594152   -3.9913292    18.735476   0.04071086   0.13502703    1.2063471     21.44682    9864.8095 
  269000    1.7915407    14.771855    16.563395   -3.9969545     18.72885  0.039959051  -0.01489188    1.1945098    21.421355    9829.7121 
  270000    1.8000715    14.744459     16.54453   -4.0003928    18.706082  0.038769477 -0.052705153    1.2001977    21.403851    9805.6358 
  271000    1.7980243    14.788597    16.586621   -3.9868824    18.736882  0.038597189 -0.0083526317    1.1988327     21.41715    9823.9252 
  272000    1.8029543    14.775958    16.578913    -3.990517    18.728542  0.037933775  -0.11183394    1.2021198    21.438295    9853.0509 
  273000    1.8011081    14.760237    16.561345   -4.0119524    18.730267   0.04192222  0.043844154    1.2008889    21.397492     9796.898 
  274000    1.7872779    14.760493     16.54777   -4.0010716    18.724481  0.037083483     0.143628    1.1916676    21.398561    9798.3673 
  275000    1.8096408    14.785639    16.595279   -3.9833705     18.73127  0.037738986  0.081537759     1.206578    21.446828    9864.8212 
  276000    1.8124595    14.782045    16.594505   -3.9925063    18.738514  0.036037229   0.17005057    1.2084574    21.417051    9823.7892 
  277000    1.7930696     14.75754    16.550609   -4.0204943    18.739214  0.038819551 -0.090149995    1.1955291    21.387204    9782.7738 
  278000    1.7848834    14.760231    16.545114   -4.0142596     18.73727   0.03722067   0.11463791     1.190071    21.394356    9792.5917 
  279000     1.788884    14.780862    16.569746   -3.9989277    18.738433  0.041356583  -0.13251006    1.1927384    21.422709    9831.5771 
  280000    1.8057292    14.771162    16.576892    -4.001581    18.732851  0.039892364   0.14208355      1.20397    21.406263    9808.9507 
  281000    1.7743601     14.75516     16.52952   -4.0030657    18.719941  0.038284805  0.024383393    1.1830546    21.411176    9815.7062 
  282000    1.8146279    14.758115    16.572743   -4.0016599    18.719987  0.039788312 -0.0024634381    1.2099032    21.401365    9802.2189 
  283000    1.7776331    14.798302    16.575935   -3.9780604    18.737407  0.038955306 -0.028744314    1.1852369    21.452223    9872.2667 
  284000    1.8519925    14.765442    16.617435   -3.9868184    18.713309  0.038951787  0.088175494     1.234816    21.423836    9833.1286 
  285000    1.7969372    14.762849    16.559786   -3.9896049    18.714087  0.038367509  0.092392868    1.1981079    21.424018    9833.3785 
  286000     1.791502    14.745097    16.536599    -4.025391    18.733256  0.037232647   0.15073205     1.194484    21.380485    9773.5565 
  287000    1.8117206    14.722955    16.534675   -4.0444576    18.728892  0.038520652   0.14385093    1.2079647    21.362993     9749.589 
  288000    1.7950154    14.752467    16.547482   -4.0053004    18.718996  0.038770895  -0.10400913    1.1968265    21.421705    9830.1941 
  289000    1.8124512    14.778278    16.590729   -3.9998833    18.738192  0.039969431  -0.17729402    1.2084518    21.421662    9830.1352 
  290000    1.7840718    14.801538     16.58561   -3.9705542    18.731391  0.040701436  0.013724744    1.1895299    21.454919    9875.9901 
  291000    1.7857201     14.80874     16.59446   -3.9669337    18.733863  0.041810942   0.11931722    1.1906289    21.440451    9856.0245 
  292000    1.7874426    14.772973    16.560416   -3.9922544    18.724742  0.040485392 0.0094044754    1.1917774    21.455301    9876.5181 
  293000     1.803727    14.737238    16.540965   -4.0299248    18.727501  0.039661938  0.092327229     1.202635    21.362153    9748.4382 
  294000    1.8064284    14.778093    16.584521   -3.9879378    18.725312  0.040718225    0.0591939    1.2044361    21.410274    9814.4663 
  295000    1.8238853    14.805867    16.629752   -3.9813404    18.747207  0.040000347 -0.029487988    1.2160756    21.449442    9868.4289 
  296000    1.8072187     14.76315    16.570369   -4.0065128    18.729136  0.040526448  -0.23018332    1.2049631    21.436583    9850.6903 
  297000    1.8194936    14.753548    16.573042   -4.0131125    18.725832  0.040828271 -0.0036869459    1.2131474    21.394228    9792.4158 
  298000    1.7723925    14.756321    16.528713   -4.0031398    18.717474  0.041986272  0.047389756    1.1817427     21.41678    9823.4163 
  299000    1.8181878    14.768927    16.587115   -3.9960622    18.724454  0.040535367  0.074003718    1.2122767    21.419613    9827.3141 
  300000    1.7841156     14.78856    16.572675   -3.9996417    18.747092  0.041108843 -0.098165096    1.1895591    21.428265    9839.2281 
  301000    1.7767532    14.763724    16.540477   -4.0144322    18.739487  0.038669506  -0.11048033    1.1846502    21.398002    9797.5986 
  302000    1.8069635    14.726811    16.533774   -4.0338155    18.720454  0.040172744  -0.03183118    1.2047929    21.378337    9770.6119 
  303000    1.7917143    14.791113    16.582827   -3.9827272     18.73527  0.038570613   0.10256851    1.1946255    21.444755    9861.9614 
  304000    1.8410726    14.790106    16.631179   -3.9858041    18.736669  0.039241395  0.010681866    1.2275352    21.448662    9867.3522 
  305000    1.7818615    14.790755    16.572617    -3.977383    18.727241  0.040897466  0.041622254    1.1880562    21.463509    9887.8572 
  306000    1.8138431    14.790072    16.603915   -3.9918337    18.740689  0.041216477  0.099209351    1.2093799    21.428598    9839.6861 
  307000    1.7876396    14.783247    16.570887   -3.9804559    18.724356   0.03934726  0.032783068    1.1919087    21.424412    9833.9218 
  308000    1.8055689    14.768467    16.574036   -4.0044519    18.734775  0.038143922   0.22401694    1.2038631    21.398999    9798.9689 
  309000    1.7816701     14.73466     16.51633   -4.0131111    18.707534  0.040236886   0.14584558    1.1879285    21.388379    9784.3873 
  310000    1.7824321    14.774342    16.556774   -4.0024602    18.736152  0.040649833 -0.067740717    1.1884366    21.410775    9815.1552 
  311000    1.8073527    14.788631    16.595984    -3.971549    18.719225  0.040955038 -0.071938328    1.2050524     21.45935    9882.1095 
  312000    1.8292969    14.768912    16.598209   -3.9934927    18.721892  0.040513411  0.047876203    1.2196837    21.418996     9826.465 
  313000    1.7894475    14.792529    16.581976   -3.9728734    18.723104  0.042298393  -0.11868924    1.1931142    21.464523     9889.258 
  314000    1.8339741    14.778555     16.61253   -3.9981527    18.736057  0.040651635   0.10670544    1.2228022    21.412739    9817.8564 
  315000    1.8099432    14.755521    16.565464   -4.0120812    18.727096  0.040506808   -0.0680779    1.2067797    21.406636    9809.4634 
  316000    1.8112178     14.75456    16.565778   -4.0169138    18.734898  0.036576008  -0.33558725    1.2076295    21.426186     9836.365 
  317000     1.824031    14.792156    16.616187   -3.9822738    18.736079  0.038350697  0.010446684    1.2161727      21.4459    9863.5399 
  318000    1.7871038    14.784378    16.571482   -3.9770995    18.725948  0.035529883  -0.23555671    1.1915515    21.458733    9881.2573 
  319000    1.8122627    14.752315    16.564577   -4.0120672    18.726978  0.037403413   0.16010941    1.2083262    21.383779    9778.0758 
  320000    1.7848841    14.761354    16.546238   -4.0069806    18.728111  0.040223406  0.030340355    1.1900715    21.415679    9821.9005 
  321000    1.8056389    14.793158    16.598797   -3.9867504    18.740523  0.039385605 -0.091202908    1.2039097    21.442643    9859.0469 
  322000     1.802984    14.799466     16.60245   -3.9684646    18.728282  0.039648171 -0.035408706    1.2021396    21.451042    9870.6368 
  323000    1.7789831     14.78908    16.568063   -3.9751486    18.724185  0.040044004  -0.07228593     1.186137    21.448318    9866.8772 
  324000    1.8146413    14.773805    16.588447   -3.9853191    18.718935   0.04018924   0.33161292    1.2099121    21.424341    9833.8243 
  325000    1.7937994    14.787061    16.580861   -3.9891582    18.737995  0.038224571  -0.19686629    1.1960158    21.431168    9843.2277 
  326000    1.8074583    14.748132     16.55559   -4.0213005    18.730206  0.039226487 -0.077683424    1.2051228    21.408871    9812.5367 
  327000    1.7874042     14.78391    16.571314   -3.9874572    18.730088  0.041279304 -0.011935184    1.1917518    21.439618    9854.8752 
  328000    1.7927189    14.787296    16.580015   -3.9832043    18.730562  0.039938195 -0.088181165    1.1952953    21.431105    9843.1403 
  329000    1.7769898    14.769984    16.546974    -3.993844    18.724563  0.039265371 -0.026293558     1.184808    21.432528    9845.1022 
  330000    1.8399909    14.740275    16.580266    -4.025099    18.726222  0.039151765  0.047210904    1.2268139    21.382206    9775.9172 
  331000    1.7837586    14.758656    16.542415   -3.9863125    18.706135  0.038833988 -0.027958689    1.1893211    21.447089    9865.1811 
  332000    1.8085471     14.78514    16.593687   -3.9924117    18.735035  0.042517082   0.11859912    1.2058488    21.415884    9822.1823 
  333000    1.8035023    14.772644    16.576147   -3.9997065    18.734232  0.038118466  -0.14275072    1.2024852    21.442099    9858.2968 
  334000    1.8304635    14.763585    16.594048   -3.9950416    18.722645  0.035981778   0.26822071    1.2204616    21.397871    9797.4189 
  335000    1.7801312    14.775075    16.555206   -3.9976363    18.735521  0.037190237 -0.094065034    1.1869025    21.426355    9836.5973 
  336000    1.8203492    14.767777    16.588126   -4.0016953    18.731622  0.037850212 -0.065597079    1.2137178    21.398851    9798.7661 
  337000    1.7834024    14.759113    16.542515   -3.9997868    18.721811    0.0370887 -0.032185108    1.1890836    21.433853    9846.9269 
  338000    1.8140724    14.768519    16.582591   -4.0060184     18.73526  0.039277504   0.07533928    1.2095328    21.395301    9793.8897 
  339000      1.80441    14.800798    16.605208   -3.9823423    18.744172   0.03896799  -0.12689925    1.2030904    21.457957    9880.1864 
  340000    1.8179849    14.754956     16.57294   -4.0004367    18.717816  0.037576186 -0.059550468    1.2121414    21.436309    9850.3123 
  341000    1.8134734    14.761934    16.575407   -3.9975909    18.719731  0.039793982 -0.061694455    1.2091334     21.41412    9819.7555 
  342000    1.7916291    14.773003    16.564632   -3.9903216    18.726249  0.037074992 -0.068234705    1.1945687    21.432896    9845.6093 
  343000    1.8151282     14.74055    16.555678   -4.0171295    18.719623  0.038056649 -0.035144276    1.2102368    21.401048    9801.7844 
  344000    1.7960255    14.791216    16.587242   -3.9833404    18.737718  0.036838233  0.027382407       1.1975    21.452728    9872.9651 
  345000    1.8196632    14.812965    16.632629   -3.9533329    18.729726  0.036572276  0.042576617    1.2132604     21.45748    9879.5266 
  346000    1.8215943    14.769294    16.590888   -3.9894058    18.722077   0.03662235   0.07239896     1.214548    21.443927    9860.8182 
  347000    1.7921183    14.752134    16.544252    -4.022734    18.738849   0.03601871  0.064246199    1.1948949    21.383939    9778.2946 
  348000    1.7871113    14.719614    16.506725   -4.0442428    18.728971  0.034885891  0.043979703    1.1915565    21.375209    9766.3232 
  349000    1.7964279    14.747531    16.543959   -4.0119829    18.724565  0.034948975   0.16699915    1.1977683    21.384045    9778.4397 
  350000    1.8110411    14.778782    16.589823   -3.9803441    18.723428  0.035698216 -0.031037397    1.2075116       21.438    9852.6444 
  351000    1.7961272    14.801056    16.597183   -3.9786618    18.741981   0.03773685  0.065647323    1.1975678     21.43701      9851.28 
  352000    1.8199664    14.721961    16.541927   -4.0340348    18.717429   0.03856666   0.11881073    1.2134626     21.39812    9797.7616 
  353000    1.7991599    14.733376    16.532536   -4.0194529    18.713367  0.039462376   0.18694496    1.1995899    21.379052    9771.5915 
  354000    1.7948418    14.785895    16.580736    -3.979704     18.72598  0.039619043   -0.1031082    1.1967108    21.452662    9872.8739 
  355000    1.8253045    14.776521    16.601825    -3.977631    18.714183  0.039968399  0.072890326    1.2170218    21.441664    9857.6974 
  356000    1.7989609    14.760277    16.559238   -4.0040669    18.725887  0.038456787  0.066280736    1.1994572    21.417431    9824.3121 
  357000    1.8026816    14.756855    16.559537   -4.0146905    18.735826  0.035719066 -0.058087275     1.201938    21.385228    9780.0627 
  358000    1.8025552     14.76061    16.563165   -3.9846813    18.706418  0.038873247  -0.23979473    1.2018537    21.453384    9873.8697 
  359000    1.8318138    14.767363    16.599177   -3.9941992    18.722468  0.039094234   0.23618144    1.2213619    21.399975    9800.3102 
  360000    1.7952978    14.746742     16.54204   -4.0205733    18.725355  0.041960057  0.086273072    1.1970148    21.391373    9788.4968 
  361000    1.8004413    14.761844    16.562286   -4.0094043    18.729441  0.041808033  -0.14088514    1.2004443    21.413781    9819.2897 
  362000    1.8023364    14.812369    16.614705   -3.9563505    18.727091  0.041628753  -0.11361319    1.2017078    21.477596    9907.3383 
  363000    1.8055334    14.784261    16.589795   -3.9885093    18.732392  0.040378698  0.027259931    1.2038394    21.437739    9852.2847 
  364000    1.7850004    14.767896    16.552896    -3.997118    18.725793  0.039220701   -0.1619008     1.190149    21.426162    9836.3308 
  365000    1.8089353    14.786509    16.595445   -3.9841301    18.730452  0.040187832  0.095332484    1.2061076      21.4203    9828.2604 
  366000    1.7890737    14.793301    16.582375   -3.9845193     18.73675  0.041070665 -0.0082408534    1.1928649    21.449699    9868.7832 
  367000    1.7812233    14.739181    16.520404   -4.0278315    18.725011  0.042000872    0.1486596    1.1876306    21.353641    9736.7901 
  368000    1.7992928    14.766508    16.565801   -3.9894608    18.714787  0.041182063   0.08406191    1.1996785    21.428898    9840.1004 
  369000    1.8048414    14.795209     16.60005    -3.975761    18.731958  0.039011326  -0.19684415     1.203378    21.454127    9874.8968 
  370000    1.7917676    14.780104    16.571872   -3.9890814    18.728799  0.040386199  -0.22082753    1.1946611    21.449947     9869.126 
  371000    1.8340942    14.734362    16.568457   -4.0158573     18.71291  0.037310092  0.060930429    1.2228823    21.394987    9793.4586 
  372000    1.7911243    14.755948    16.547073    -4.003497     18.72223  0.037215128  0.087854832    1.1942322     21.40009    9800.4679 
  373000    1.8266727    14.750646    16.577319   -4.0124121    18.724864  0.038193937  0.068851987     1.217934     21.38762    9783.3455 
  374000    1.7951276    14.783108    16.578236   -3.9981806    18.741193  0.040095716 -0.016971961    1.1969014    21.417675     9824.647 
  375000    1.7929936    14.773687    16.566681   -3.9901683    18.722364  0.041491642  0.049586121    1.1954785    21.426009    9836.1213 
  376000    1.7937558    14.769048    16.562804   -4.0158606      18.7433  0.041608829  -0.15543804    1.1959867    21.405757    9808.2556 
  377000    1.8076675    14.771339    16.579007    -4.004219    18.736823  0.038735211  -0.11271046    1.2052623    21.415643    9821.8508 
  378000    1.8026661     14.76311    16.565776   -3.9997186    18.725065   0.03776338 0.0037915971    1.2019277    21.413256    9818.5675 
  379000     1.782842    14.802701    16.585543   -3.9684826    18.732454  0.038730356  0.051720926    1.1887099    21.444503    9861.6124 
  380000    1.8039897    14.774395    16.578385   -3.9982893    18.733272  0.039413091  0.087355829    1.2028102    21.412265    9817.2037 
  381000     1.790073    14.775209    16.565282   -3.9904894    18.725129  0.040569493  0.070199101    1.1935312    21.437942     9852.564 
  382000    1.8169019    14.783452    16.600354   -3.9990438    18.742809  0.039687087  0.039973267    1.2114194    21.423562    9832.7514 
  383000    1.7982578    14.771944    16.570202   -3.9979433    18.729607   0.04028043  0.047826514    1.1989884    21.420296    9828.2544 
  384000    1.8064157    14.768077    16.574492   -4.0084436    18.734757  0.041762974  -0.12591655    1.2044277    21.404406    9806.3984 
  385000    1.7682473    14.759586    16.527833   -4.0068426    18.728189  0.038239032 -0.067629294    1.1789789    21.426566    9836.8871 
  386000    1.7932347    14.767492    16.560727    -4.001896    18.732199  0.037189005 0.0057360064    1.1956393    21.409067    9812.8058 
  387000    1.8019251    14.773462    16.575387   -3.9935697    18.729559  0.037472013 0.0091520225    1.2014336    21.422161    9830.8217 
  388000    1.8129428    14.779114    16.592057   -3.9839478    18.724767  0.038295083  -0.02742143    1.2087796    21.425515    9835.4407 
  389000     1.797998    14.766105    16.564103   -3.9966468    18.723862  0.038888958   0.14427157    1.1988152     21.41833    9825.5494 
  390000    1.7805117    14.778778    16.559289   -4.0032768    18.741864   0.04019057 -0.0054900323    1.1871562    21.400731    9801.3481 
  391000    1.8060493    14.792926    16.598975   -3.9827145    18.736579  0.039061976  -0.22577516    1.2041834    21.424195    9833.6232 
  392000    1.7890037    14.780453    16.569457   -3.9926108    18.735034  0.038030202   0.05591753    1.1928182     21.43349    9846.4268 
  393000      1.76916    14.764525    16.533685   -3.9947549    18.720843  0.038436877   0.11677068    1.1795874    21.404629    9806.7045 
  394000    1.8201678    14.755797    16.575965   -4.0150671    18.732145  0.038719321 -0.082748947    1.2135969    21.386502    9781.8108 
  395000    1.7833254    14.780425    16.563751   -3.9855082     18.72455  0.041383216   -0.0391145    1.1890322    21.416602    9823.1712 
  396000    1.7814988    14.737507    16.519006   -4.0246654    18.721745  0.040427951  -0.13107132    1.1878144    21.383125    9777.1778 
  397000    1.7899425    14.786844    16.576786   -3.9917422    18.735225  0.043361183  0.052307163    1.1934442    21.412561    9817.6113 
  398000     1.811521    14.775419     16.58694   -3.9903421    18.723536  0.042225735   -0.1722781    1.2078317    21.433232    9846.0712 
  399000    1.7772784    14.779499    16.556777   -3.9830981    18.721733  0.040863716  -0.10692091    1.1850004    21.462004    9885.7767 
  400000    1.8287619    14.765303    16.594065   -3.9913908    18.718052  0.038642489   0.27967896     1.219327    21.397799    9797.3208 
  401000    1.7650439    14.795348    16.560392   -3.9716234    18.729083  0.037888669 -0.073125083     1.176843    21.454647    9875.6142 
  402000    1.8285233    14.761895    16.590418   -3.9928617    18.717145  0.037611443   0.16480727     1.219168    21.411601    9816.2909 
  403000     1.808351    14.756702    16.565053   -3.9898624    18.707548  0.039015684  -0.14104482    1.2057181    21.423552    9832.7374 
  404000     1.819616    14.748595    16.568211   -4.0210173    18.726957  0.042655304 -0.018598617     1.213229    21.392549    9790.1105 
  405000    1.7540965    14.748569    16.502666   -4.0082558    18.716645  0.040179477  0.042480348    1.1695439    21.398942    9798.8904 
  406000    1.7934508    14.723233    16.516684   -4.0409848    18.723352  0.040865957  0.078168558    1.1957833    21.350269    9732.1786 
  407000    1.7938448    14.766491    16.560336   -3.9959841    18.721948  0.040527665 -0.072324149    1.1960461    21.414878    9820.7988 
  408000    1.8178875    14.749707    16.567595   -4.0251147    18.733085   0.04173728  0.027178137    1.2120765     21.38494    9779.6684 
  409000    1.8058776    14.740483    16.546361   -4.0184143      18.7164  0.042497674  0.014590333    1.2040689    21.415161    9821.1885 
  410000    1.7980433    14.788637     16.58668   -3.9831941    18.730334  0.041496607  -0.10950822    1.1988454     21.43824    9852.9745 
  411000    1.8254903    14.788319    16.613809   -3.9963442     18.74472  0.039942845 -0.003527236    1.2171457     21.43231    9844.8011 
  412000    1.7975317    14.769138     16.56667   -4.0084253    18.739011  0.038553005  -0.23003883    1.1985043    21.413591    9819.0277 
  413000    1.7845028    14.785049    16.569552   -3.9962525    18.742694  0.038606945  0.044054851    1.1898173    21.420448     9828.464 
  414000    1.8053393    14.794456    16.599796   -3.9719445    18.728576  0.037824907  0.015448583      1.20371    21.448534    9867.1754 
  415000    1.8108084    14.755371    16.566179   -4.0214972    18.736922  0.039945459   0.27120123    1.2073565    21.390475    9787.2639 
  416000    1.7815464    14.736655    16.518202   -4.0236676    18.722187  0.038135525 -0.078787291    1.1878461    21.381884    9775.4756 
  417000    1.8136104    14.750385    16.563995   -4.0263767    18.736335  0.040426309 -0.049131945    1.2092247    21.376871    9768.6021 
  418000    1.8095332    14.757934    16.567467   -4.0085593    18.725654  0.040838533 -0.032808028    1.2065063    21.421474    9829.8768 
  419000    1.7988082    14.752429    16.551237   -4.0210622    18.733871  0.039619487  0.074021035    1.1993554    21.385017     9779.773 
  420000    1.8026857    14.728445    16.531131   -4.0253766    18.714161  0.039660968 0.0051226145    1.2019407     21.38173    9775.2641 
  421000    1.7811169     14.78203    16.563146   -4.0026119    18.746809  0.037832166   0.18927757    1.1875597    21.418665    9826.0098 
  422000    1.8296226    14.795443    16.625066   -3.9834488    18.738107  0.040785634 -0.057158752    1.2199009    21.435471    9849.1578 
  423000    1.7930675     14.77765    16.570718   -3.9976129     18.73465   0.04061319 -0.090763074    1.1955278     21.41916    9826.6915 
  424000    1.7869887     14.75238    16.539369   -4.0205607    18.736095   0.03684586   0.04511275    1.1914747    21.366235    9754.0276 
  425000    1.7743038     14.77201    16.546314   -3.9947044    18.728409  0.038305516   0.10198161    1.1830171    21.412227    9817.1524 
  426000    1.8011573    14.769177    16.570335    -4.004567    18.734458   0.03928605 -0.096349844    1.2009217    21.431298     9843.407 
  427000    1.8249561    14.761348    16.586304   -3.9987857    18.722171  0.037963383   0.17851487    1.2167895    21.412731    9817.8453 
  428000    1.7955294    14.814943    16.610472   -3.9633695    18.739525  0.038787241 -0.068825963    1.1971693    21.460523    9883.7308 
  429000    1.8343626    14.775155    16.609518   -3.9890377    18.723463  0.040730261 -0.092921742    1.2230613      21.4283    9839.2764 
  430000    1.7878835    14.768411    16.556295   -4.0013712    18.729698  0.040084559 0.0039940613    1.1920713    21.410656    9814.9915 
  431000    1.8117461    14.768477    16.580223    -4.002826    18.728586  0.042717332  -0.13395023    1.2079817     21.40378    9805.5386 
  432000    1.7972588    14.824688    16.621947   -3.9507149    18.734747    0.0406564  -0.16818335    1.1983223    21.502302    9941.5682 
  433000     1.822639    14.807967    16.630606   -3.9785154    18.748891   0.03759117 0.0054840558    1.2152446    21.436565    9850.6662 
  434000    1.7856663     14.79411    16.579777   -3.9567829    18.712132  0.038761446  0.079410783     1.190593    21.457625    9879.7276 
  435000    1.8131006    14.783126    16.596226   -3.9979196    18.739099  0.041946067   -0.1141053    1.2088849    21.407968     9811.295 
  436000     1.774826    14.761726    16.536552   -4.0141191    18.735607  0.040238249  -0.20510247    1.1833652    21.413792    9819.3046 
  437000    1.8075586    14.771625    16.579183   -4.0018582    18.731054  0.042428561  0.067117049    1.2051897    21.415339    9821.4326 
  438000    1.8068547     14.77665    16.583505   -3.9910022    18.727502  0.040150205 -0.013560511    1.2047204    21.428452    9839.4859 
  439000    1.7897537    14.730407     16.52016   -4.0332766    18.722733  0.040950656 -0.087108157    1.1933183    21.379551    9772.2758 
  440000    1.7923278    14.747682     16.54001   -4.0126156    18.720493  0.039804854   0.01712487    1.1950346    21.397557    9796.9874 
  441000     1.810272    14.791129    16.601401   -3.9835816     18.73544  0.039270266  0.057013793    1.2069989    21.425468    9835.3762 
  442000    1.8051442    14.747675    16.552819   -4.0269832    18.734844   0.03981437 -0.0067423557    1.2035799    21.399451    9799.5899 
  443000    1.8009494    14.722162    16.523111    -4.042563    18.725535  0.039189396  0.014925281     1.200783    21.364626    9751.8251 
  444000     1.802372    14.760443    16.562815   -4.0017073     18.72218  0.039970834  0.069139085    1.2017316    21.409163    9812.9389 
  445000    1.8009648    14.796167    16.597132   -3.9696563    18.727082  0.038741511 -0.067451027    1.2007933    21.449905    9869.0671 
  446000     1.791678    14.786144    16.577822   -3.9875427    18.734957  0.038729103  0.025874661    1.1946013    21.411298    9815.8739 
  447000    1.7996398    14.723485    16.523125   -4.0306871    18.716986  0.037186282 -0.0022998209    1.1999099    21.384777    9779.4441 
  448000    1.8056483    14.766482     16.57213   -3.9886177     18.71651  0.038589759 0.0027937797    1.2039161    21.420343     9828.319 
  449000    1.8109065    14.778452    16.589358   -3.9811389    18.722259  0.037331361  -0.10039529     1.207422    21.450315    9869.6333 
  450000    1.8014574    14.815632    16.617089   -3.9589472    18.736841  0.037738364  0.079048241    1.2011217    21.439517    9854.7353 
  451000    1.7922235    14.783017    16.575241   -3.9919154    18.736373   0.03855959 -0.032562973     1.194965    21.430197    9841.8891 
  452000    1.8143327     14.71488    16.529213   -4.0376553    18.713975  0.038560222  -0.10128058    1.2097064    21.375522    9766.7522 
  453000    1.8080523    14.756591    16.564643   -3.9952367    18.713989  0.037838295 -0.081868817    1.2055189    21.427286    9837.8795 
  454000    1.8202505    14.753932    16.574182   -4.0125628     18.72756   0.03893404  -0.10337043     1.213652    21.408738     9812.354 
  455000    1.7870387    14.747716    16.534754   -4.0047162     18.71325  0.039181614  0.049743422    1.1915081    21.397477    9796.8784 
  456000    1.7975243    14.739427    16.536951   -4.0187705    18.722341  0.035856773  0.044957236    1.1984994    21.375107    9766.1835 
  457000    1.7990703    14.769329    16.568399    -3.994038    18.723662  0.039705037  -0.12544807    1.1995302    21.431584    9843.8002 
  458000    1.8433035    14.738426    16.581729   -4.0259001    18.723143  0.041182631   0.15644301    1.2290226    21.370486    9759.8507 
  459000    1.7769344     14.75276    16.529694   -4.0228301     18.73808  0.037510241  -0.32439625     1.184771    21.406232    9808.9081 
  460000    1.8086088    14.768758    16.577367   -3.9987169     18.72894  0.038534807    0.1592636    1.2058899    21.394096    9792.2348 
  461000    1.7979363    14.754724    16.552661   -4.0039094    18.723171   0.03546319 0.00048910181    1.1987741    21.419012    9826.4877 
  462000    1.8064389    14.771453    16.577892   -3.9892536    18.723108  0.037598375  -0.06616651    1.2044431    21.407931    9811.2446 
  463000    1.7919508    14.777625    16.569576   -3.9890234    18.730312  0.036337133  0.085522226    1.1947832     21.44083    9856.5465 
  464000    1.8165247    14.785383    16.601908   -3.9746947    18.720715   0.03936303   0.24039946    1.2111678    21.432906    9845.6223 
  465000    1.8140023    14.770261    16.584263   -3.9912657    18.719487  0.042039783  0.013819618     1.209486    21.448675    9867.3693 
  466000    1.8142742    14.775965    16.590239    -3.996786    18.732526  0.040225364   0.19873032    1.2096673     21.42155    9829.9807 
  467000    1.7984698    14.766061    16.564531   -4.0063824    18.734695   0.03774828 -0.032111066    1.1991298    21.429895    9841.4736 
  468000    1.7989775    14.768535    16.567513   -4.0047427    18.732337  0.040941535  0.027034542    1.1994683    21.388004    9783.8721 
  469000    1.7858017    14.761293    16.547095   -4.0058997    18.726333  0.040860087 -0.091020309    1.1906833      21.4229    9831.8396 
  470000    1.8183124    14.734747    16.553059   -4.0313222    18.729371  0.036698032  0.034733898    1.2123598    21.370929    9760.4581 
  471000    1.7635999     14.77098     16.53458   -4.0024449    18.736561  0.036864076  -0.17944348    1.1758803    21.433257    9846.1064 
  472000    1.8378795    14.736656    16.574536   -4.0362936    18.735705  0.037244277   0.10015659    1.2254061     21.36972    9758.8017 
  473000    1.7791248    14.773216    16.552341   -3.9962608    18.733942     0.035535  -0.16362022    1.1862315    21.446873    9864.8835 
  474000    1.8181852     14.79075    16.608935   -3.9922552     18.74473  0.038275274 -0.054018072     1.212275    21.418937    9826.3845 
  475000    1.8089397     14.76649    16.575429    -3.999094    18.724877  0.040706446 -0.053126533    1.2061106    21.432416    9844.9465 
  476000    1.7888784     14.75543    16.544308   -4.0234063    18.738452  0.040383936 -0.063869815    1.1927347    21.397068    9796.3158 
  477000    1.7524552    14.746552    16.499007   -4.0192499    18.726258  0.039543812 0.00084496749    1.1684495    21.382104    9775.7775 
  478000    1.7888366    14.763663    16.552499   -3.9865473    18.710687  0.039523453   -0.1030603    1.1927068    21.439154    9854.2349 
  479000    1.8297344    14.768384    16.598119   -4.0090756    18.738246  0.039213279  0.040324684    1.2199754    21.413181    9818.4639 
  480000    1.7912254    14.761126    16.552351   -4.0070485    18.726003  0.042171203  -0.13608993    1.1942996    21.425068    9834.8244 
  481000    1.8163772    14.740348    16.556725   -4.0257397    18.725772  0.040315319  0.073849498    1.2110695    21.382683    9776.5711 
  482000    1.7640914    14.763931    16.528023   -4.0007405    18.726928  0.037743936  0.018170175     1.176208    21.428685    9839.8062 
  483000    1.8045544    14.764401    16.568955   -4.0146123    18.737489  0.041524607   0.27077045    1.2031867    21.382328    9776.0842 
  484000    1.7730846    14.786477    16.559561    -3.982997    18.729675  0.039798297 -0.064090988    1.1822042    21.437052    9851.3365 
  485000    1.8185918    14.771503    16.590095   -3.9981194    18.727548  0.042074333   0.05367089    1.2125461    21.404336    9806.3021 
  486000    1.8014561    14.760286    16.561743   -4.0040687    18.723708  0.040646746 -0.026624237    1.2011208    21.420402    9828.4001 
  487000    1.7903317    14.777518     16.56785   -3.9916344    18.730032   0.03912078   0.10771552    1.1937037    21.411297    9815.8736 
  488000    1.7801206    14.797185    16.577306   -3.9868366    18.745517  0.038505162   0.11640391    1.1868954    21.421459    9829.8556 
  489000    1.8090804    14.773847    16.582928   -3.9947302    18.728309  0.040268769  -0.28189282    1.2062044    21.433054    9845.8266 
  490000    1.8230791    14.736579    16.559658    -4.009711    18.708874  0.037415881  0.061246102     1.215538    21.409529    9813.4416 
  491000    1.7982253    14.804298    16.602523   -3.9614069    18.724502  0.041202817  -0.15413335    1.1989667    21.456873    9878.6888 
  492000    1.8305235    14.803378    16.633902   -3.9762527    18.737064  0.042567635 -0.087440437    1.2205016    21.463817    9888.2822 
  493000    1.8023087    14.763568    16.565877   -4.0043016    18.726456  0.041412949 -0.053436302    1.2016893    21.419675    9827.3993 
  494000    1.8329241    14.733099    16.566023   -4.0188942    18.710347  0.041645888   0.16435278    1.2221022    21.411263    9815.8256 
  495000    1.8282321    14.770489    16.598721   -4.0071523    18.735098  0.042544028  0.072874633    1.2189738    21.422891    9831.8277 
  496000    1.7831635    14.792572    16.575736   -3.9791218    18.732486  0.039207982  -0.24595334    1.1889243    21.448915    9867.7009 
  497000     1.797479    14.738236    16.535715   -4.0401342    18.736886  0.041484482  0.053122121    1.1984692    21.354552    9738.0362 
  498000     1.773425    14.737474    16.510899   -4.0301114    18.725045  0.042540193  0.040443162    1.1824312     21.39895    9798.9011 
  499000    1.7928496    14.781891    16.574741    -3.991925    18.733684  0.040132793   0.04873672    1.1953825    21.422131    9830.7812 
  500000    1.8073245    14.790078    16.597403   -3.9847092    18.735267  0.039519969  0.078805966    1.2050336    21.438868    9853.8415 
  501000    1.7749264    14.777657    16.552583    -3.990324    18.727848  0.040132449 -0.073887885    1.1834322    21.413664     9819.128 
  502000    1.7859817    14.729886    16.515868   -4.0329974    18.723729   0.03915477  0.035359234    1.1908033    21.373164    9763.5204 
  503000    1.8121343    14.740054    16.552188   -4.0412194    18.741085  0.040187992  -0.11219627    1.2082406    21.372215    9762.2208 
  504000    1.7765351    14.789726    16.566261   -3.9866308    18.735934  0.040422894 -0.017041462    1.1845048    21.451669    9871.5026 
  505000    1.8013019    14.820767    16.622069   -3.9473114    18.729129  0.038948902 -0.0068061567    1.2010181    21.442014    9858.1795 
  506000    1.8238383     14.74937    16.573209   -4.0081997    18.717399  0.040171067   -0.1477066    1.2160442     21.42083    9828.9893 
  507000    1.7945722    14.748258     16.54283    -4.012588    18.721927  0.038918443  0.080759664     1.196531    21.385726    9780.7464 
  508000    1.8263066    14.766907    16.593214   -4.0112523     18.73872  0.039439915  -0.03392201      1.21769    21.414328    9820.0416 
  509000    1.8103155    14.769075    16.579391   -3.9948004    18.724273  0.039602933 -0.032093631    1.2070278    21.447645    9865.9486 
  510000    1.8123842    14.739061    16.551445   -4.0247081    18.724697  0.039071458  0.092942103    1.2084072    21.374388    9765.1988 
  511000    1.7840113    14.729049     16.51306   -4.0275789      18.7178   0.03882781  -0.16738892    1.1894895    21.406785    9809.6687 
  512000    1.7854727    14.777071    16.562544   -3.9989765    18.735807  0.040240655 -0.021411081    1.1904639    21.408462     9811.974 
  513000    1.8031658    14.805368    16.608534   -3.9628655    18.727202  0.041031367   0.15086045    1.2022608    21.446334    9864.1388 
  514000    1.8042025    14.784841    16.589044   -3.9854677    18.732426  0.037882643   0.01168569    1.2029521    21.438327    9853.0951 
  515000    1.8144351    14.771831    16.586266   -3.9950505    18.727777  0.039104966  0.024733556    1.2097746    21.440461     9856.038 
  516000    1.8103989    14.758283    16.568682   -4.0267324    18.743186  0.041828964  -0.12127431    1.2070835    21.398434    9798.1921 
  517000     1.776217     14.77163    16.547847   -3.9921424    18.722755  0.041017547 -0.074743598    1.1842927    21.402631    9803.9592 
  518000    1.7913593    14.801207    16.592566   -3.9694066    18.733274  0.037338845  0.020452502    1.1943888    21.430371      9842.13 
  519000    1.7952884    14.777637    16.572926    -3.991125    18.728667  0.040095844 -0.066297234    1.1970086    21.429659     9841.149 
  520000    1.7517567    14.743493    16.495249   -4.0168043    18.717261  0.043035863  0.094070528    1.1679838    21.392305    9789.7752 
  521000    1.8058826    14.759272    16.565154   -4.0051794    18.720955  0.043496292  0.038248673    1.2040722    21.408609    9812.1761 
  522000    1.8200283    14.767989    16.588017   -3.9987397    18.727632   0.03909608  -0.15420312    1.2135039    21.433074    9845.8534 
  523000    1.7825109    14.770728    16.553239   -3.9938946    18.726042   0.03858091  -0.12133384    1.1884891    21.429282    9840.6296 
  524000    1.8132435    14.770133    16.583377   -4.0081896    18.739035  0.039287505  0.088650791    1.2089801    21.394481    9792.7631 
  525000    1.8038027    14.761466    16.565268   -3.9958665    18.716538  0.040794072  -0.15250762    1.2026855    21.436451     9850.508 
  526000    1.8202189    14.779411     16.59963   -3.9885743    18.725861  0.042124625 -0.025281725    1.2136309    21.406465     9809.229 
  527000    1.8065098    14.782008    16.588518   -3.9852917    18.727875  0.039425639 -0.094770579    1.2044905    21.451259    9870.9372 
  528000    1.8077352    14.747511    16.555246   -4.0143843    18.720637  0.041259078  0.058419171    1.2053075    21.390709    9787.5849 
  529000     1.778048    14.736616    16.514664   -4.0095543    18.705895   0.04027527 -0.092989927    1.1855135    21.384517    9779.0877 
  530000    1.7966755    14.768998    16.565673   -4.0034781    18.732615  0.039860912   0.10370386    1.1979334    21.427848     9838.653 
  531000    1.7980822    14.786832    16.584914   -3.9862967    18.731576  0.041552447 -0.0057984405    1.1988714    21.425274    9835.1081 
  532000    1.7828507    14.742374    16.525225   -4.0202418    18.723943  0.038672661  0.066195552    1.1887157    21.383907    9778.2512 
  533000    1.7763195    14.762626    16.538946   -4.0149511    18.737442  0.040135773 0.0055797256    1.1843611    21.421488    9829.8952 
  534000    1.8019483    14.791662     16.59361   -3.9717363    18.721444  0.041954009  0.033331504     1.201449    21.443419    9860.1175 
  535000    1.7927859    14.779282    16.572068   -3.9837511    18.721968  0.041064806  -0.11697078      1.19534    21.437081    9851.3777 
  536000    1.8018295    14.767572    16.569402    -3.997952    18.724722  0.040802089   0.12231926    1.2013698    21.399582    9799.7703 
  537000    1.7955942    14.830264    16.625858     -3.94854    18.738321  0.040482744 0.0053967197    1.1972125    21.488513    9922.4545 
  538000    1.8220041    14.797084    16.619089   -3.9677165    18.727046  0.037755123   0.09510778    1.2148213    21.428176    9839.1048 
  539000     1.781173    14.768982    16.550155   -4.0020135    18.730284  0.040712025  0.082359556    1.1875971    21.412857    9818.0181 
  540000    1.7839014    14.780782    16.564683   -4.0011768    18.743618  0.038340609   0.11264248    1.1894163    21.397255    9796.5726 
  541000    1.8129393    14.801791     16.61473   -3.9817576    18.741155  0.042393804  -0.04743158    1.2087773    21.443653    9860.4409 
  542000    1.7963798    14.789578    16.585958   -3.9826751    18.731611  0.040642382  0.043720354    1.1977362    21.451021    9870.6081 
  543000    1.8261658    14.742478    16.568644   -4.0067734    18.709978  0.039273736  0.018650542    1.2175961    21.409044    9812.7743 
  544000    1.7957333     14.76921    16.564943   -4.0093267    18.734972   0.04356415   0.22880394    1.1973052     21.38614    9781.3144 
  545000    1.7980577    14.758377    16.556435   -3.9967425    18.715958  0.039161277    0.0223882     1.198855    21.441764    9857.8344 
  546000    1.8149638    14.758807    16.573771    -4.002747    18.722217  0.039336818 -0.044024914    1.2101272     21.39882    9798.7225 
  547000    1.8008982    14.781443    16.582341   -3.9837969     18.72673   0.03851003   0.11094643    1.2007489    21.450961    9870.5257 
  548000    1.7948656     14.80134    16.596205   -3.9651966    18.726449  0.040087393 -0.083801921    1.1967267    21.461642    9885.2764 
  549000    1.7856782    14.783152     16.56883   -3.9879272    18.731654    0.0394249 0.0030112262     1.190601    21.412538    9817.5796 
  550000    1.7869943    14.738816     16.52581   -4.0271749    18.723792   0.04219945  0.022341474    1.1914785    21.379233    9771.8409 
  551000    1.7891245    14.770666     16.55979   -4.0042495     18.73415  0.040765676  0.019484899    1.1928988    21.423352    9832.4616 
  552000    1.8212613    14.766154    16.587415   -3.9973328    18.720299  0.043187655  -0.05950752     1.214326    21.417758    9824.7621 
  553000    1.7764534    14.760103    16.536557   -3.9991831    18.720945  0.038341745  -0.11053041    1.1844504    21.419337    9826.9354 
  554000    1.8155711    14.732526    16.548097   -4.0267991    18.719944   0.03938078   0.12723713    1.2105321    21.372599    9762.7466 
  555000    1.8003404    14.763448    16.563789   -4.0086793    18.730982  0.041145711 -0.025434447     1.200377    21.419302    9826.8868 
[...]
 9867000    1.8029683    14.777904    16.580872   -3.9776103    18.714057  0.041457615   0.11754707    1.2021291    21.425852    9835.9038 
 9868000    1.8090478    14.808304    16.617352   -3.9625941    18.728224  0.042674145 -0.088681042    1.2061827    21.485743     9918.617 
 9869000    1.8046715    14.777695    16.582366   -3.9894059    18.726016  0.041084015  -0.11967002    1.2032648    21.436452    9850.5104 
 9870000    1.7973721    14.739403    16.536775    -4.013487    18.711896  0.040993691  0.018935807    1.1983979    21.388382    9784.3904 
 9871000    1.8034805    14.775753    16.579233   -3.9939096    18.731266  0.038396009  0.094086274    1.2024706    21.403111    9804.6187 
 9872000    1.8107363    14.802965    16.613701    -3.970672     18.73452  0.039116856 -0.013451574    1.2073085    21.466777    9892.3735 
 9873000    1.8163321    14.821008     16.63734   -3.9634457    18.741219  0.043234851   0.15101556    1.2110395     21.44348    9860.2023 
 9874000    1.8006768    14.773749    16.574426   -4.0034597    18.737864  0.039344801 -0.033429355    1.2006013    21.408725    9812.3357 
 9875000    1.7694424    14.775578     16.54502   -3.9985042    18.734365  0.039717291 -0.021267318    1.1797757    21.406915     9809.847 
 9876000     1.827443    14.758043    16.585486   -4.0020433    18.720497  0.039589985 -0.033394378    1.2184477    21.385947    9781.0493 
 9877000    1.7745784     14.79991    16.574488   -3.9635088    18.722537  0.040881957  -0.32802702    1.1832002    21.483591    9915.6372 
 9878000     1.825226    14.791922    16.617148   -3.9927183    18.739455  0.045184878   0.10208947    1.2169694     21.41321    9818.5048 
 9879000    1.7857887    14.790105    16.575894   -3.9761589     18.72261  0.043654715 0.0028210632    1.1906746    21.436003    9849.8906 
 9880000      1.79925    14.776833    16.576083   -3.9979006    18.733098  0.041635822  0.075626205      1.19965    21.403324    9804.9118 
 9881000    1.7633328     14.75532    16.518653   -4.0048872    18.718566  0.041640861 -0.088139174    1.1757022    21.425293    9835.1344 
 9882000    1.7888097    14.779677    16.568486   -3.9802185    18.716942   0.04295312   0.23082615    1.1926889    21.414251    9819.9359 
 9883000    1.8097095    14.806333    16.616042   -3.9618474    18.725961  0.042218993 -0.00026983615    1.2066238    21.464744    9889.5643 
 9884000    1.8127999     14.78506     16.59786   -3.9764527    18.722737  0.038775287  0.028413909    1.2086844    21.438733    9853.6546 
 9885000    1.7944221    14.770883    16.565305   -3.9958863    18.724479  0.042290784  -0.12571517    1.1964309    21.429648    9841.1327 
 9886000    1.8076519    14.785522    16.593174   -3.9963212    18.739892   0.04195185 -0.073399084    1.2052519    21.423487    9832.6479 
 9887000     1.786329    14.764567    16.550896    -4.002804    18.725715  0.041656358 -0.048170713    1.1910349    21.418475    9825.7487 
 9888000    1.7940838    14.781457     16.57554   -3.9966774    18.737163  0.040971262  0.013281244    1.1962054    21.418532    9825.8271 
 9889000    1.7858929    14.778362    16.564255    -3.985329    18.720041  0.043650362  -0.11650148    1.1907441    21.427482    9838.1495 
 9890000    1.8081769    14.796074    16.604251   -3.9775031    18.734735  0.038842183  -0.13180063     1.205602    21.438896    9853.8794 
 9891000     1.801334    14.783169    16.584503   -3.9714119    18.713987  0.040593201 -0.041046358    1.2010395    21.452429    9872.5515 
 9892000    1.8140073     14.78307    16.597077   -3.9813751    18.723841  0.040603527   0.19773443    1.2094894    21.428723    9839.8587 
 9893000    1.8015336    14.759824    16.561357   -3.9961269    18.718902  0.037048801 0.0050311408    1.2011725    21.442575     9858.954 
 9894000    1.8036402    14.753256    16.556897   -3.9986876     18.71205  0.039894162 -0.043407248    1.2025771    21.415031    9821.0092 
 9895000    1.8197634    14.779954    16.599718    -3.989149    18.727539  0.041564063  0.053548143    1.2133272    21.429108    9840.3898 
 9896000    1.8144665    14.816097    16.630564   -3.9533708    18.728667  0.040801287 -0.010966956    1.2097956    21.476268    9905.5014 
 9897000     1.790366    14.806341    16.596707   -3.9584279    18.722091  0.042678291  0.039325119    1.1937265    21.455373    9876.6166 
 9898000    1.8046236    14.786365    16.590988   -3.9830302    18.726933  0.042461418  0.051503323    1.2032328    21.445361    9862.7962 
 9899000     1.841031    14.774012    16.615043   -3.9975154    18.729853  0.041674321  -0.08756225    1.2275074    21.431433     9843.593 
 9900000    1.8023874     14.76113    16.563517   -4.0018581    18.721016  0.041972403 -0.071228029    1.2017418    21.428172    9839.0999 
 9901000    1.8207865    14.787025    16.607812   -4.0018269    18.749748  0.039103927 -0.027790874    1.2140094    21.411404    9816.0196 
 9902000    1.8087211    14.773442    16.582163   -3.9952927    18.728087  0.040648415  -0.13575662    1.2059648    21.437259    9851.6226 
 9903000     1.792563    14.796806    16.589369    -3.972345    18.725034  0.044116747 -0.020725237    1.1951914    21.430093     9841.747 
 9904000    1.8164536     14.78055    16.597003   -3.9942456    18.734766  0.040029659 -0.017119438    1.2111205      21.4038    9805.5651 
 9905000    1.8011704    14.741429    16.542599   -4.0216678    18.722127  0.040970052 -0.022569255    1.2009304    21.400121    9800.5097 
 9906000     1.823126    14.758253    16.581379   -4.0196185    18.735889  0.041982512  -0.17816843    1.2155693    21.402802    9804.1947 
 9907000    1.7887522    14.801558     16.59031   -3.9730771    18.731025  0.043610691 -0.0097519792    1.1926505    21.472336    9900.0615 
 9908000    1.7914934    14.765063    16.556557   -4.0061926    18.730605  0.040651236   0.13675959    1.1944782    21.402838    9804.2438 
 9909000    1.7990767    14.763798    16.562874   -4.0001003    18.722758  0.041140091   0.12354368    1.1995344    21.418209    9825.3829 
 9910000    1.8020358    14.720731    16.522767    -4.044385    18.723241  0.041875126 -0.015594135    1.2015074    21.384359    9778.8713 
 9911000    1.7972231    14.767535    16.564758   -4.0044482    18.732786  0.039197474  0.070846497    1.1982985     21.40325    9804.8093 
 9912000    1.8099282    14.769446    16.579374    -3.991305    18.722863  0.037888162 -0.058825522    1.2067697    21.442432    9858.7555 
 9913000    1.7948986    14.771021     16.56592   -4.0013866    18.731682  0.040725217  -0.20219842    1.1967487    21.422783    9831.6789 
 9914000    1.8054525    14.775707     16.58116   -3.9816651    18.720169  0.037203702   0.31473838    1.2037855    21.420857    9829.0266 
 9915000    1.8065365    14.796777    16.603313   -3.9862858    18.744482  0.038581078  -0.18957132    1.2045082    21.441525    9857.5057 
 9916000    1.8051732    14.743771    16.548944   -4.0099734    18.713287  0.040457772  -0.12152428    1.2035992    21.410877    9815.2949 
 9917000    1.7918326    14.762469    16.554301   -3.9982276    18.722943   0.03775333  -0.11116009    1.1947044     21.39807    9797.6924 
 9918000    1.8006091    14.746804    16.547413   -4.0186324    18.729209   0.03622793  -0.10185923    1.2005561    21.388215     9784.162 
 9919000    1.7931601    14.743294    16.536454   -4.0253393    18.732081  0.036552377  -0.13609229    1.1955895    21.381588    9775.0699 
 9920000    1.8011589    14.749667    16.550826   -4.0222016     18.73411  0.037758872 -0.053877856    1.2009227    21.382155    9775.8471 
 9921000    1.7778639    14.784447    16.562311   -3.9862956    18.731435  0.039307617 -0.068215019    1.1853908    21.442384    9858.6901 
 9922000    1.8043179    14.798627    16.602945   -3.9760663    18.736052  0.038641565 -0.020874314     1.203029    21.450483    9869.8653 
 9923000    1.8018271    14.777852    16.579679   -3.9850687    18.724584  0.038336641  0.021044126    1.2013682    21.420136    9828.0339 
 9924000     1.790504    14.727249    16.517753   -4.0386824    18.725506  0.040424715  -0.13500058    1.1938185    21.394513    9792.8069 
 9925000    1.8060653    14.729892    16.535958   -4.0234617    18.714261  0.039092824   0.13876887    1.2041941    21.380582    9773.6898 
 9926000    1.8034527    14.783325    16.586778   -3.9868817    18.728589  0.041617791 -0.062568556    1.2024521    21.427696    9838.4449 
 9927000    1.8015225    14.779049    16.580571    -3.984198     18.72428  0.038966921  -0.08818741    1.2011652    21.451969    9871.9163 
 9928000    1.8100057    14.775864     16.58587   -4.0011361    18.737305  0.039695177  0.022672467    1.2068213    21.420472    9828.4971 
 9929000    1.8025142    14.765396     16.56791   -3.9901193    18.713921  0.041593758   0.16169875    1.2018264    21.420073    9827.9475 
 9930000    1.8138659    14.749942    16.563808    -4.007722    18.717289  0.040374746   0.10198597    1.2093951    21.395411    9794.0403 
 9931000    1.7803472    14.749113     16.52946   -4.0105302    18.722639  0.037003616 -0.068708654    1.1870465    21.416584    9823.1454 
 9932000    1.8175812    14.753113    16.570694   -4.0238896    18.737613  0.039388734   0.10427221    1.2118723    21.363612    9750.4366 
 9933000    1.7591167    14.758237    16.517353   -3.9903602    18.710607  0.037989768 -0.0052064801    1.1728911     21.43514    9848.7018 
 9934000    1.8324814    14.736917    16.569398   -4.0281963    18.724258  0.040855728 -0.051675604     1.221807     21.38496    9779.6955 
 9935000    1.8084204    14.771746    16.580166   -3.9929449    18.725323  0.039367984   0.03770762    1.2057643    21.437146    9851.4674 
 9936000    1.8218385    14.778647    16.600485   -3.9786623    18.719746  0.037563177 -0.065409489    1.2147108    21.436792    9850.9781 
 9937000    1.8060276    14.766701    16.572728   -4.0090816    18.736724  0.039058374   0.11588721     1.204169     21.41592    9822.2331 
 9938000    1.8012615    14.757878    16.559139   -4.0013796    18.719413  0.039844386 -0.030526936    1.2009911    21.431511    9843.6997 
 9939000     1.820217    14.787477    16.607694   -3.9787712    18.727716  0.038532619  -0.11105465    1.2136297    21.428579      9839.66 
 9940000    1.8121449    14.740504    16.552649   -4.0114554    18.712258   0.03970132 -0.054052277    1.2082477     21.41796    9825.0392 
 9941000    1.7879847    14.759333    16.547318   -4.0092939    18.728447  0.040180169 -0.075409684    1.1921388    21.399877    9800.1744 
 9942000    1.8125082    14.770708    16.583216   -4.0023279    18.734172  0.038864165   0.10356394    1.2084898    21.398527     9798.321 
 9943000    1.8032119    14.788986    16.592198   -3.9807179    18.730624  0.039079784 -0.052424005    1.2022916    21.443109    9859.6902 
 9944000     1.785889    14.754975    16.540864   -4.0119483    18.726527  0.040395602   0.16424066    1.1907415    21.380048    9772.9583 
 9945000    1.7714384    14.735816    16.507255   -4.0306465    18.727966  0.038496835  -0.04684677    1.1811066    21.372639    9762.8017 
 9946000    1.7968505    14.738607    16.535458   -4.0094988    18.709235  0.038870739  0.063175118    1.1980501    21.393613    9791.5711 
 9947000    1.8085683    14.781636    16.590204   -3.9646793    18.706545   0.03976983  0.082715201    1.2058629    21.460647    9883.9024 
 9948000     1.809848    14.802722     16.61257   -3.9913232    18.752441  0.041604429   0.16516568    1.2067162    21.422866    9831.7921 
 9949000    1.7772637    14.781705    16.558968   -3.9874433     18.73119  0.037957604 0.0034523304    1.1849906    21.420785    9828.9278 
 9950000    1.8139944    14.764647    16.578642   -3.9977228    18.725757  0.036612856  0.072937339    1.2094808    21.407625    9810.8237 
 9951000    1.7675195    14.764689    16.532208   -4.0022675    18.727746  0.039210023    0.1013893    1.1784936    21.420136    9828.0347 
 9952000    1.8225185    14.767623    16.590142   -3.9956689    18.721286  0.042006427     0.154589    1.2151643    21.400876    9801.5479 
 9953000    1.7866084    14.804144    16.590752   -3.9604902     18.72479  0.039843698 -0.010119823    1.1912212    21.469102    9895.5882 
 9954000    1.7880418    14.763999    16.552041      -4.0203    18.743523   0.04077581 -0.042221161    1.1921769    21.385202    9780.0275 
 9955000    1.7771332     14.76616    16.543293   -3.9911781    18.718459  0.038879035 -0.028722141    1.1849036    21.422329    9831.0535 
 9956000    1.8000771    14.802924    16.603002    -3.976426    18.737563  0.041787464 -0.060349716    1.2002015    21.452779    9873.0352 
 9957000    1.7876256     14.77103    16.558656   -3.9974514    18.728403  0.040078429  0.027090959    1.1918994    21.400497    9801.0274 
 9958000     1.802739    14.764737    16.567476   -4.0006874    18.728138  0.037286091  -0.14666147    1.2019763    21.423634    9832.8497 
 9959000    1.8013268    14.778952    16.580279   -3.9794401    18.718546  0.039845322  0.045495815    1.2010347    21.423154    9832.1892 
 9960000    1.8104944    14.729812    16.540306   -4.0330198    18.722557  0.040274867 -0.030406833    1.2071472       21.392    9789.3564 
 9961000    1.7974907    14.752273    16.549764   -4.0223324    18.736381  0.038223726 -0.039394446     1.198477    21.400809     9801.455 
 9962000    1.8121922    14.778728    16.590921   -3.9845717    18.725514  0.037785896  0.072804454    1.2082792    21.400732    9801.3494 
 9963000     1.817575    14.785128    16.602703   -3.9762229    18.722115  0.039236096  -0.10937388    1.2118681    21.467282    9893.0724 
 9964000    1.8077971    14.781764    16.589561      -3.9852    18.728575  0.038389835 -0.085255615    1.2053487    21.418438    9825.6978 
 9965000    1.7818313    14.750367    16.532199   -4.0196788    18.732609  0.037436995  -0.11511413     1.188036    21.397172    9796.4589 
 9966000    1.8180234    14.754255    16.572278   -4.0099534    18.724745  0.039462679  0.026774445    1.2121671    21.416928    9823.6201 
 9967000    1.7813939    14.800479    16.581873   -3.9810468    18.739059  0.042466567  0.030854236    1.1877444    21.434859    9848.3136 
 9968000    1.7951602    14.792916    16.588077   -3.9731911     18.72369  0.042417645 -0.0048905917    1.1969231    21.448173    9866.6765 
 9969000    1.8228712    14.792876    16.615747   -3.9867204    18.738869  0.040727689  -0.12246356    1.2153994    21.443407    9860.1004 
 9970000    1.7998609    14.754014    16.553875    -4.000772    18.716793   0.03799227   0.02409836    1.2000573    21.403377    9804.9844 
 9971000     1.800733    14.751492    16.552225   -4.0190661    18.732025  0.038533372  0.080776013    1.2006388    21.372674    9762.8494 
 9972000    1.7845426    14.801483    16.586025   -3.9681172     18.73207   0.03753008 -0.031385943    1.1898438    21.465964    9891.2508 
 9973000    1.8230672    14.772603     16.59567    -4.001019    18.735621  0.038000935  -0.30135938    1.2155301    21.410973     9815.427 
 9974000    1.7934428    14.765817     16.55926   -3.9947832    18.721052  0.039547959 -0.027532671     1.195778    21.421853    9830.3984 
 9975000    1.8142172    14.781513     16.59573   -3.9852185    18.725885  0.040846757  0.071777921    1.2096294    21.422012    9830.6167 
 9976000    1.8088079    14.793387    16.602195   -3.9618792    18.716994  0.038271526  -0.10663543    1.2060227    21.466418    9891.8775 
 9977000    1.8252311     14.73574    16.560971   -4.0045845    18.700412  0.039912538 0.0094262964    1.2169729    21.396567    9795.6286 
 9978000    1.7779899    14.765468    16.543458   -3.9922605    18.720001   0.03772742  0.084629904    1.1854748    21.427327    9837.9367 
 9979000     1.800127     14.81184    16.611967   -3.9576471    18.732837  0.036650064  -0.20531193    1.2002347     21.46176    9885.4397 
 9980000    1.8189182    14.751787    16.570705   -3.9924881    18.706821  0.037454021  -0.12500037    1.2127638    21.415862    9822.1524 
 9981000    1.7957234    14.756891    16.552614   -3.9998762    18.718397   0.03837013 -0.014274881    1.1972986    21.434902    9848.3735 
 9982000    1.8081965    14.784818    16.593015   -3.9885481    18.733532  0.039833979   0.30679472    1.2056151    21.403286    9804.8599 
 9983000    1.7924775    14.759218    16.551696   -4.0064444    18.725355   0.04030765 -0.00014108172    1.1951344    21.401682    9802.6549 
 9984000    1.7862247    14.767445     16.55367   -4.0007829    18.730504  0.037723459 -0.090974697    1.1909654    21.400859    9801.5239 
 9985000    1.7889218    14.809361    16.598283   -3.9649687    18.738904  0.035425987  0.046260793    1.1927636    21.461429    9884.9819 
 9986000    1.8313088      14.7822    16.613509   -3.9555502    18.701165   0.03658526 -0.0081013343    1.2210252    21.482918     9914.705 
 9987000    1.8136611    14.793858    16.607519   -3.9594114    18.714443   0.03882593 -0.024015863    1.2092585    21.460777    9884.0816 
 9988000    1.8336081    14.740288    16.573896     -4.00217      18.7034  0.039057981  -0.10428498    1.2225582    21.398928     9798.871 
 9989000    1.8022331    14.735522    16.537755   -4.0108748    18.707487   0.03890956  -0.19956716     1.201639    21.425855    9835.9092 
 9990000    1.8321513    14.765298     16.59745   -4.0050159    18.730722  0.039592187  0.099866919    1.2215869    21.410034    9814.1357 
 9991000    1.8171589    14.749001     16.56616    -4.010218    18.721241   0.03797849  0.017276182    1.2115907    21.417455    9824.3452 
 9992000    1.7796036    14.726959    16.506562   -4.0332166     18.71891  0.041265114  0.067854419    1.1865507    21.373749    9764.3224 
 9993000    1.7869651    14.758731    16.545696   -4.0007958    18.719443  0.040083602 -0.020196961     1.191459    21.404923    9807.1095 
 9994000    1.8014947    14.782975     16.58447   -3.9911395    18.735368  0.038746295 -0.039386249    1.2011466    21.453939    9874.6362 
 9995000    1.8090849    14.795507    16.604592   -3.9840478    18.738805  0.040749831 -0.053943094    1.2062074    21.436427    9850.4759 
 9996000    1.7906847    14.775555    16.566239   -4.0023544    18.738561  0.039347805  -0.03646316    1.1939391    21.402234    9803.4131 
 9997000     1.799753    14.779705    16.579458   -3.9729922    18.711766  0.040931296  -0.13070134    1.1999853    21.443462    9860.1768 
 9998000    1.8194494    14.809527    16.628976   -3.9497115    18.717769  0.041469015 -0.026062626    1.2131179     21.47321      9901.27 
 9999000    1.8270345    14.761655    16.588689   -4.0124034    18.731841  0.042217071   0.13460648    1.2181753    21.417296    9824.1254 
10000000    1.7855156    14.775641    16.561156   -3.9868797    18.722055  0.040465157   -0.2471432    1.1904925    21.434521    9847.8479 
Loop time of 16061.3 on 8 procs for 10000000 steps with 8000 atoms

Performance: 107587.810 tau/day, 622.615 timesteps/s
99.6% CPU use with 8 MPI tasks x no OpenMP threads

MPI task timing breakdown:
Section |  min time  |  avg time  |  max time  |%varavg| %total
---------------------------------------------------------------
Pair    | 10845      | 10965      | 11076      |  73.5 | 68.27
Bond    | 615.77     | 630.29     | 639.44     |  25.9 |  3.92
Neigh   | 1839.9     | 1840.7     | 1841.6     |   1.6 | 11.46
Comm    | 1331.3     | 1451.7     | 1577.7     | 201.3 |  9.04
Output  | 161.25     | 161.26     | 161.34     |   0.2 |  1.00
Modify  | 905.44     | 914.35     | 925.86     |  23.5 |  5.69
Other   |            | 97.79      |            |       |  0.61

Nlocal:    1000 ave 1017 max 988 min
Histogram: 1 0 2 2 1 0 0 1 0 1
Nghost:    2519.88 ave 2541 max 2493 min
Histogram: 1 0 2 0 0 1 0 1 2 1
Neighs:    35807 ave 37200 max 34790 min
Histogram: 2 1 1 0 0 2 0 0 1 1

Total # of neighbors = 286456
Ave neighs/atom = 35.807
Ave special neighs/atom = 1.8
Neighbor list builds = 648316
Dangerous builds = 3
Total wall time: 4:27:41
