8000
Atoms. Timestep: 0
1 10.4893 1.66418 -4.29557
1 10.0456 1.06662 -4.91145
1 9.47868 1.33492 -4.23452
1 9.07681 2.27521 -4.36539
1 9.75973 2.73516 -4.71254
1 9.38818 2.69922 -5.59395
1 9.93499 2.05587 -6.00664
1 -10.519 1.71299 -5.38275
1 -10.2669 0.753895 -5.60339
1 -10.5615 1.07323 -6.47287
1 -8.42858 5.48767 -5.62671
1 -8.74454 4.55747 -5.83612
1 -8.05234 4.30728 -6.56374
1 -8.08488 3.39999 -6.83694
1 -8.27288 3.47449 -5.9593
1 -7.73498 3.17278 -5.15373
1 -8.37851 3.59452 -4.61617
1 -8.56547 4.49126 -4.43616
1 -8.35729 5.4666 -4.37772
1 -8.87783 6.17693 -4.83199
1 10.4863 -1.44025 7.76771
1 -9.81267 -0.951262 7.67774
1 -9.50894 -0.22757 8.27991
1 -9.00161 0.195119 7.55169
1 -8.3227 -0.155988 6.91713
1 -8.01598 -0.864399 7.53233
1 -8.23395 -0.22582 8.20297
1 -8.54195 0.655223 8.56663
1 -8.54527 0.221121 9.4224
1 -8.39699 0.0926085 10.4361
1 -4.3273 -0.368622 4.18042
1 -4.60144 -0.512691 3.21524
1 -4.99522 -1.22946 2.70102
1 -5.4356 -1.39661 3.57993
1 -5.96202 -1.90903 2.88624
1 -6.4288 -2.06198 2.0899
1 -7.2356 -1.54825 1.8149
1 -7.51481 -1.56198 0.897513
1 -8.41572 -1.26715 0.658679
1 -8.97587 -1.2952 -0.146545
1 2.8008 -1.14939 9.80213
1 2.9705 -1.73861 9.0941
1 2.50825 -2.51331 8.86973
1 3.30506 -2.79944 8.39147
1 3.83007 -2.02371 8.5623
1 4.26583 -2.29172 9.32529
1 4.20922 -3.1384 8.8791
1 4.66356 -2.77293 8.10585
1 4.1763 -2.57373 7.33785
1 3.89502 -1.66239 7.59809
1 -0.175989 -10.3349 10.2901
1 0.218629 -10.1151 -9.95018
1 -0.225673 10.2593 -9.47324
1 -1.07676 10.2813 -9.91394
1 -1.96358 9.99194 -9.56887
1 -1.91714 -10.2304 -9.73629
1 -1.23008 -10.2516 -9.01942
1 -1.57952 10.1667 -8.54399
1 -2.46461 9.8637 -8.44386
1 -2.48701 -10.258 -8.52659
1 4.20606 9.89335 -10.2123
1 5.09468 10.3385 -10.0775
1 5.61443 9.89392 -9.38723
1 5.56796 -10.2029 -9.38495
1 6.31453 -9.78728 -9.81131
1 6.10142 -10.0389 10.4851
1 6.2019 -9.06671 -10.5218
1 5.38538 -9.38839 -10.1971
1 5.3065 -9.57417 9.97744
1 5.01899 -8.65088 10.2273
1 2.47591 5.47785 0.694402
1 1.66463 5.32287 1.22252
1 1.03481 4.64752 1.33807
1 1.00202 3.83077 1.75548
1 0.353406 3.45165 1.20018
1 0.957366 3.94728 0.686201
1 1.8596 4.04623 1.07131
1 2.49902 4.67858 1.52949
1 2.1113 4.7175 2.39656
1 2.69842 4.00069 2.61758
1 -1.78793 1.01686 3.63376
1 -2.15836 1.18697 2.67844
1 -2.90486 1.61874 2.208
1 -3.66986 1.38568 2.78481
1 -3.49946 0.923968 3.60741
1 -4.44857 0.715605 3.67611
1 -5.18368 0.105447 3.78601
1 -5.31433 -0.619464 4.37149
1 -6.01734 -0.407369 4.9272
1 -6.52971 -0.798693 4.13821
1 -0.654305 5.52344 2.16007
1 -0.0865484 5.12168 1.37382
1 -0.115387 4.39189 0.730161
1 -0.659569 3.92272 1.38512
1 -0.103435 4.25018 2.11062
1 -0.684138 3.85628 2.69937
1 -0.375956 2.95773 2.99278
1 0.178199 3.09975 2.17059
1 -0.23868 2.23317 1.95699
1 -0.247975 1.28882 2.02441
1 7.26643 -4.91749 1.67309
1 7.46546 -4.64151 0.754401
1 7.30123 -5.63365 0.71127
1 7.05605 -5.15188 -0.0650345
1 7.43617 -5.55483 -0.908466
1 8.37722 -5.77161 -0.94705
1 8.12266 -5.59777 -1.8961
1 7.84235 -5.45947 -2.76245
1 6.85662 -5.64067 -2.82956
1 6.64726 -5.65626 -1.85245
1 3.85314 -6.81165 7.5609
1 4.66792 -6.3172 7.44657
1 4.28167 -6.08013 8.36216
1 4.07088 -6.38482 9.24341
1 3.2245 -6.68019 8.77887
1 2.7792 -7.28038 9.42838
1 2.28545 -6.47612 9.29414
1 1.90591 -5.96663 10.0425
1 1.62717 -5.9781 -10.1435
1 1.50037 -5.04398 -9.97305
1 0.139221 -6.89558 -2.05928
1 0.406345 -7.31739 -2.85766
1 -0.148758 -7.46349 -3.59263
1 -0.637359 -6.7639 -3.16062
1 -0.625791 -6.17227 -3.92573
1 -0.891451 -5.58393 -3.17067
1 -1.74508 -6.14941 -3.34368
1 -1.74506 -7.04385 -3.68276
1 -1.06046 -7.27837 -4.38498
1 -0.229412 -7.64975 -4.66279
1 7.80472 -6.8681 -4.88721
1 7.70432 -6.33757 -5.68082
1 8.66862 -6.29873 -5.295
1 9.46089 -5.80316 -4.9533
1 9.45847 -5.82391 -5.96064
1 8.64134 -5.2808 -6.13746
1 7.82171 -4.93062 -6.40785
1 7.50006 -5.80363 -6.68383
1 7.1571 -6.70802 -6.48659
1 7.77596 -6.9878 -7.07552
1 2.03182 6.54782 3.12213
1 1.24678 6.76783 2.61702
1 0.354104 6.47384 2.41802
1 0.216931 7.42661 2.60741
1 0.635952 8.27162 2.2815
1 -0.000437521 8.50067 2.89562
1 0.712652 9.15294 3.03225
1 0.0935645 9.79914 3.32174
1 0.383508 9.96286 4.2393
1 1.12226 -10.5585 4.40047
1 -8.4262 7.94666 -3.97649
1 -8.9326 8.71365 -3.68821
1 -9.7039 8.99451 -4.15236
1 -10.5184 8.75784 -4.72643
1 10.2338 7.84551 -4.89938
1 10.1124 8.17679 -4.03156
1 10.4806 7.68434 -3.30235
1 -10.1212 7.04243 -3.79615
1 -9.86133 6.88887 -2.8593
1 -9.60646 7.47888 -2.09122
1 4.90291 -8.10671 0.835758
1 4.2735 -8.76547 0.555176
1 4.15507 -9.62487 0.288821
1 4.0954 -9.13347 -0.463874
1 3.67014 -9.43285 -1.26435
1 3.17831 -8.60405 -1.08181
1 2.41899 -9.2606 -1.1979
1 2.18314 -8.87361 -0.321541
1 1.68902 -9.18875 0.49398
1 2.58708 -9.41359 0.4973
1 -4.80167 4.50337 -10.3339
1 -4.17815 3.79837 -10.1757
1 -4.13746 3.74592 -9.23352
1 -4.56733 4.59909 -9.23369
1 -5.13808 3.93481 -8.84618
1 -5.98031 3.89229 -8.42115
1 -5.21443 4.35323 -7.91319
1 -5.29099 4.417 -7.02754
1 -5.10103 5.33187 -7.14326
1 -5.7434 5.43932 -6.32184
1 8.48874 -5.36513 -3.85476
1 9.4617 -5.32836 -3.93067
1 9.94842 -5.08346 -3.15638
1 -10.3915 -4.64105 -3.34107
1 -9.7533 -4.97075 -2.7092
1 -9.46537 -4.16743 -3.08632
1 -9.05817 -3.66848 -2.32732
1 -9.53227 -3.34554 -1.56262
1 -10.0165 -4.09615 -1.92389
1 10.2277 -4.28952 -2.37379
1 0.949193 8.11795 8.4404
1 0.821408 7.10859 8.4244
1 0.304978 6.28623 8.14141
1 -0.525557 5.82205 7.91773
1 0.0375461 5.27067 7.37761
1 -0.526929 4.55289 7.68183
1 0.246653 4.04333 7.98833
1 0.806653 4.84573 8.00398
1 0.830955 4.33471 8.82891
1 0.171909 3.85218 9.237
1 3.50993 5.0174 -5.9821
1 3.779 5.91959 -5.776
1 3.47356 6.32818 -4.9565
1 2.89479 5.60961 -5.30106
1 2.30826 5.26581 -5.94939
1 2.63022 4.52078 -6.48611
1 2.5125 3.74778 -7.02533
1 2.8552 2.94516 -7.385
1 1.9937 2.63238 -7.58859
1 1.55978 1.79286 -7.26766
1 6.95891 -6.58404 9.02273
1 7.39952 -7.44456 9.09576
1 7.43228 -7.32915 10.0666
1 6.63395 -7.25797 10.5253
1 5.93738 -7.861 10.3964
1 5.24578 -7.43066 -10.2317
1 4.46921 -8.01953 -9.91912
1 4.09324 -7.71322 -9.08444
1 3.66445 -6.97891 -9.46406
1 3.547 -6.12011 -9.13458
1 2.0884 -1.35395 -10.5124
1 1.48778 -0.857003 10.066
1 1.28224 -0.160768 -10.4456
1 0.605269 0.263557 -9.88405
1 -0.0689709 -0.145383 -10.481
1 0.37388 -0.137415 9.87967
1 -0.303672 0.0743289 9.25685
1 -1.01519 0.0265259 8.60432
1 -0.926482 0.658958 7.88091
1 0.044957 0.530309 7.66219
1 -6.72335 -7.10606 -1.57774
1 -6.15077 -7.54472 -0.978776
1 -5.53019 -8.04936 -0.362998
1 -4.78913 -8.60468 -0.318692
1 -4.3074 -9.21746 0.225298
1 -5.09752 -9.82593 0.295482
1 -5.75226 -9.13513 0.143424
1 -6.31401 -8.81838 -0.594837
1 -6.94382 -9.14291 -1.25714
1 -7.66138 -9.33208 -0.658489
1 -2.74644 -0.313987 -1.7291
1 -2.32145 -0.546211 -0.858016
1 -3.05267 -1.16105 -1.03744
1 -3.8674 -1.08446 -1.63206
1 -4.09079 -0.452364 -0.880937
1 -3.9131 -1.36265 -0.450327
1 -3.87896 -1.94056 -1.225
1 -3.54069 -2.33408 -2.04668
1 -2.90724 -1.55254 -2.06261
1 -2.29028 -1.93025 -2.65419
1 2.14817 7.3505 -2.99675
1 2.57257 6.54339 -3.16922
1 2.03082 6.41364 -3.92843
1 2.26048 6.70865 -4.80396
1 1.31163 6.9282 -4.76218
1 1.33133 7.8837 -4.87059
1 1.20945 8.30783 -5.71007
1 1.39146 9.36116 -5.84072
1 2.15465 9.37503 -6.38886
1 1.96794 8.4676 -6.66386
1 -7.44728 0.451149 8.64568
1 -7.3252 1.3484 8.30004
1 -7.72652 0.76464 7.5751
1 -8.36216 1.34488 7.81541
1 -9.23242 1.50382 8.19722
1 -8.8102 1.68127 8.99697
1 -8.93054 2.58623 9.20972
1 -9.40605 2.03251 9.84663
1 -9.59726 2.97678 10.0123
1 -10.0053 2.86988 9.11888
1 6.39141 -5.82651 2.34506
1 5.51975 -5.48426 2.24835
1 5.37795 -5.59726 3.16941
1 5.05961 -6.18351 3.82479
1 4.67927 -5.27327 3.97986
1 4.44583 -4.34949 3.88377
1 4.50213 -3.67518 3.16398
1 3.71587 -3.63938 2.61982
1 3.75379 -4.49953 3.13983
1 3.43863 -3.88059 3.86041
1 9.24016 9.77644 -5.07915
1 9.09552 8.8617 -4.97025
1 9.94389 9.01438 -5.38184
1 -10.2602 9.19931 -5.88838
1 -9.37802 8.94177 -5.73381
1 -9.56313 9.30562 -6.59929
1 -9.17841 10.0428 -6.93362
1 -8.57915 9.29712 -6.64539
1 -8.75062 8.46669 -6.98093
1 -8.78702 8.14016 -6.07309
1 -5.35059 -2.37113 7.20608
1 -4.97492 -3.25211 7.16799
1 -5.57949 -4.07497 7.14233
1 -6.10187 -3.26081 7.42485
1 -6.13463 -2.61147 8.08686
1 -5.15453 -2.75154 8.17771
1 -5.59001 -2.98351 8.97663
1 -6.5299 -3.22184 8.87808
1 -6.83182 -2.43355 9.318
1 -7.47473 -2.6887 8.69041
1 -4.13787 -8.28969 1.48612
1 -4.77132 -8.25186 0.685893
1 -4.70599 -7.37969 0.240844
1 -5.26199 -6.79122 0.83899
1 -4.47315 -6.26669 0.640241
1 -3.78741 -5.86889 1.07046
1 -3.98752 -6.47425 1.77494
1 -4.52626 -7.21711 1.48413
1 -4.01839 -7.5673 2.23453
1 -4.47763 -8.39424 2.55285
1 3.08914 -0.884049 7.408
1 2.19922 -1.15718 7.53057
1 1.72088 -1.5189 8.33083
1 1.70448 -1.57777 9.32474
1 2.01511 -0.680958 9.23645
1 2.6765 -0.730164 8.519
1 3.08772 0.0692951 8.20574
1 3.31298 0.932827 8.13005
1 3.66973 1.40485 7.39347
1 4.29666 1.6667 8.15719
1 1.52631 -4.2149 8.09197
1 1.25437 -3.77466 8.89913
1 1.43682 -3.57631 9.81939
1 1.20358 -2.81156 9.32857
1 0.481277 -2.43115 8.83384
1 0.538587 -2.09415 9.72967
1 0.693786 -1.36578 9.14305
1 0.485656 -0.63408 8.58352
1 1.0977 -0.139928 9.20623
1 1.45261 0.725389 9.31695
1 5.2408 2.85691 -8.93545
1 5.7602 3.27763 -8.21995
1 6.66307 3.40472 -8.14515
1 6.87524 2.54842 -8.49379
1 7.26885 2.29558 -9.30168
1 7.81699 1.79484 -9.94846
1 8.5065 2.42626 -10.0678
1 8.00482 3.05406 -9.64489
1 7.03855 3.27993 -9.54396
1 6.25774 3.47598 -9.10894
1 -9.30216 2.44874 -9.11787
1 -10.0342 2.24309 -9.72996
1 -9.81455 1.36297 -9.72718
1 -10.2743 0.663435 -9.34842
1 10.15 0.160682 -8.93468
1 9.9567 -0.790654 -8.73408
1 9.65729 -1.55589 -8.23272
1 9.67464 -1.61518 -9.2796
1 10.4105 -2.29504 -9.49768
1 10.4816 -2.39338 -8.51159
1 1.1843 1.63419 -6.25377
1 0.479138 1.79501 -6.93945
1 0.786833 2.67401 -6.97593
1 -0.2587 2.68036 -7.14693
1 -0.494067 2.43969 -8.15101
1 -0.555691 1.5614 -8.48771
1 -0.310142 2.18229 -9.1389
1 -1.14201 2.56729 -8.97783
1 -1.72012 1.86779 -8.69621
1 -1.18103 1.48174 -9.37624
1 10.3536 5.65259 -9.95464
1 10.3326 5.81734 -8.9601
1 9.76876 5.02771 -8.91835
1 10.1459 4.72722 -9.69012
1 9.65355 4.10301 -10.2782
1 10.3793 3.72225 -9.87407
1 -9.95691 4.15327 -9.54941
1 -9.93661 3.97159 -8.62358
1 -10.2362 3.14849 -9.03605
1 10.3401 2.47404 -8.71979
1 -4.77545 -8.03843 -8.06152
1 -5.33735 -8.89866 -8.01916
1 -5.69258 -8.25675 -8.72534
1 -6.32486 -7.90902 -7.97547
1 -7.25343 -8.07783 -8.07503
1 -6.87558 -7.90117 -8.98967
1 -6.82054 -8.79178 -8.8907
1 -6.79552 -9.70262 -9.22996
1 -6.30255 -9.58864 -8.42899
1 -6.70168 -10.5022 -8.43623
1 2.20396 -8.0306 0.639982
1 2.00681 -7.77852 1.56045
1 1.30679 -7.28657 1.08055
1 0.810656 -7.59812 1.8169
1 0.28785 -8.38665 2.143
1 -0.534081 -8.89758 2.07616
1 -1.25898 -8.24377 1.89406
1 -1.21997 -7.29152 2.02035
1 -0.544552 -6.85088 1.48868
1 0.443126 -6.75877 1.42694
1 -1.73896 1.74507 0.575236
1 -1.07494 1.69775 -0.0681324
1 -1.32555 0.806197 0.0589863
1 -1.29921 0.624173 -0.889356
1 -2.27329 0.479547 -0.829704
1 -2.25196 1.41974 -0.454971
1 -2.55817 1.7201 -1.34637
1 -3.4611 2.07635 -1.16842
1 -4.38399 2.33674 -1.07472
1 -5.30521 2.04474 -1.05042
1 -7.81679 10.3229 -6.63894
1 -7.35593 9.61085 -7.08734
1 -7.48685 9.28004 -6.26333
1 -8.00988 9.2023 -5.48742
1 -7.27321 8.53508 -5.38864
1 -8.13962 8.35958 -5.04925
1 -8.41928 7.42312 -4.98846
1 -7.51178 7.48757 -4.82788
1 -6.76946 7.01263 -4.34864
1 -7.0191 6.17714 -4.7714
1 -2.82007 -0.533897 0.317224
1 -2.2694 0.258045 0.180458
1 -1.87793 0.38758 1.02907
1 -2.63081 -0.244697 1.26209
1 -1.84051 -0.483558 1.74831
1 -2.25195 -1.18539 1.15006
1 -1.75895 -0.570167 0.612614
1 -1.45098 -1.07499 -0.133706
1 -1.41204 -0.138791 -0.250497
1 -0.807946 -0.0647765 0.479077
1 -5.15384 -9.81729 -1.79083
1 -4.20721 -9.69505 -1.76163
1 -3.77385 -9.26306 -1.08506
1 -3.25129 -8.56486 -1.30647
1 -3.97123 -8.16137 -0.799556
1 -3.7447 -7.3673 -1.30952
1 -3.54952 -7.97728 -2.05495
1 -3.8625 -8.84803 -2.13273
1 -4.59511 -8.62484 -1.50442
1 -5.25609 -8.74653 -2.17541
1 3.99013 8.86785 -5.21237
1 3.41289 9.17426 -5.93979
1 4.22843 8.974 -6.362
1 4.55653 9.86196 -6.56751
1 4.99106 9.80085 -7.40951
1 5.55919 9.33531 -6.85102
1 5.89078 8.76691 -7.5363
1 6.17364 8.50107 -6.66822
1 6.61334 9.28088 -6.46098
1 6.47034 10.1955 -6.15307
1 10.34 -0.796255 3.52697
1 -10.3122 0.0524034 3.25103
1 10.0284 0.524741 3.03759
1 9.34446 -0.0573785 2.88818
1 8.78589 0.340833 3.52949
1 8.02096 0.956564 3.36791
1 7.69244 0.0342331 3.53286
1 7.27448 0.390654 2.79367
1 7.49044 1.0516 2.00295
1 7.23331 1.55581 2.76375
1 -9.07281 -0.0712568 -3.69359
1 -9.88581 0.395168 -4.04636
1 -10.1957 1.03619 -3.41152
1 -10.2088 1.66815 -2.61931
1 -10.1525 2.14251 -1.82954
1 -10.0977 2.90241 -2.39581
1 -10.5214 2.6995 -3.23502
1 9.86548 2.362 -3.65956
1 10.0307 1.5844 -3.11587
1 9.58617 2.35294 -2.71329
1 -2.6548 8.94501 -0.594332
1 -2.18283 9.15573 0.255878
1 -2.64232 8.40739 0.647961
1 -1.94367 7.83811 0.72189
1 -1.98639 7.38188 1.59652
1 -0.976866 7.29394 1.6824
1 -0.889844 6.59038 2.36965
1 -1.12161 6.87479 3.23781
1 -1.07238 7.68016 2.64408
1 -1.77906 8.25526 2.22543
1 -0.345186 0.400441 6.3565
1 -0.864923 1.26405 6.28504
1 -1.32799 1.87735 6.86619
1 -1.79523 2.75399 6.9518
1 -1.41692 3.38603 7.589
1 -1.45416 4.26455 7.09779
1 -2.34927 4.53462 7.22027
1 -2.4926 3.58353 7.49942
1 -3.0398 3.18526 8.21377
1 -2.15694 3.53971 8.4511
1 -8.00983 -8.35726 8.03133
1 -7.75613 -7.53348 8.63095
1 -8.62767 -7.47005 8.1416
1 -7.8543 -7.42415 7.56727
1 -7.94473 -7.20843 6.60211
1 -7.75331 -8.14922 6.81912
1 -7.03905 -7.96018 7.33849
1 -6.08348 -8.04677 7.26428
1 -6.52261 -8.4393 6.54865
1 -6.11398 -7.66834 6.13101
1 9.94967 -3.03583 6.09661
1 10.0213 -2.07313 5.92907
1 10.3088 -2.1816 6.8448
1 9.46907 -1.81615 7.16568
1 9.49382 -0.900666 7.07939
1 8.87297 -1.23113 7.7741
1 8.13258 -0.691616 7.76356
1 7.6056 -1.2193 7.18519
1 8.49665 -1.40719 6.68589
1 8.23848 -2.24009 7.04986
1 9.40208 6.82186 6.52145
1 10.3048 6.55633 6.37088
1 -9.94181 6.58838 6.61012
1 -9.67574 6.20174 7.42309
1 -9.59719 5.81214 8.3162
1 -10.5276 5.5114 8.29457
1 -10.503 5.91971 9.12319
1 9.71508 5.52421 9.04803
1 9.15569 6.09736 9.56157
1 8.8723 6.24225 8.62389
1 -8.01118 -7.11704 1.44873
1 -7.36626 -7.76752 1.16656
1 -7.07702 -8.43566 1.87164
1 -6.49565 -8.98158 2.49322
1 -6.25816 -9.8182 2.98164
1 -6.70273 -10.3087 2.31794
1 -6.32309 -9.71928 1.63552
1 -6.08083 -10.0266 0.791114
1 -5.36999 -9.99728 1.42945
1 -5.23165 -9.0963 1.12679
1 -8.23906 -1.8149 -6.24523
1 -8.24099 -0.866808 -6.03577
1 -8.16217 0.0415087 -5.83922
1 -8.38776 0.677988 -5.19102
1 -8.00369 0.213736 -4.39445
1 -7.34694 0.733729 -3.85931
1 -6.54527 0.230943 -4.1993
1 -7.01078 -0.387466 -4.73985
1 -7.42627 -0.979226 -5.38588
1 -6.94393 -0.35738 -5.83665
1 4.33468 5.43111 -1.96252
1 3.54301 5.00787 -1.70434
1 2.74566 4.96121 -1.19891
1 1.79577 4.78027 -1.09766
1 2.15475 5.38071 -0.446849
1 2.62284 4.62821 -0.110352
1 3.0295 4.06062 0.553588
1 3.84949 4.08759 0.137656
1 3.55075 4.49702 -0.686862
1 3.63838 5.13532 -0.0215842
1 3.87338 -6.17865 -3.44372
1 4.79493 -5.98759 -3.66105
1 4.76634 -6.30464 -2.74935
1 4.57789 -7.25731 -2.71708
1 4.89459 -8.11832 -2.65882
1 5.79318 -8.11783 -2.48772
1 5.4699 -8.513 -1.69196
1 5.87682 -8.93602 -0.905737
1 5.01241 -9.04768 -1.08749
1 4.42347 -8.81593 -1.80467
1 -8.15041 5.21284 0.471744
1 -7.64387 5.94302 0.858303
1 -7.52667 6.86419 0.883038
1 -6.54532 6.98406 0.803018
1 -5.77927 6.9303 1.47148
1 -5.54345 7.31284 0.600409
1 -4.59692 7.36823 0.453364
1 -4.1229 7.91894 1.13645
1 -3.32556 7.5478 0.931722
1 -2.94047 6.95783 1.63493
1 -7.39597 9.76039 -10.3323
1 -7.56428 10.1251 -9.43917
1 -6.93479 9.41022 -9.21304
1 -7.73761 8.971 -9.50232
1 -8.62427 9.0838 -9.16003
1 -9.53059 9.43473 -8.98233
1 -9.51041 9.17849 -9.92768
1 -9.81662 9.63051 10.4194
1 -10.445 8.9724 10.4208
1 -10.5304 8.07451 10.0097
1 2.21957 -5.59451 -2.29055
1 2.93431 -4.8434 -2.67627
1 2.86965 -5.49264 -3.32908
1 2.74199 -5.61606 -4.33649
1 2.63072 -6.06074 -5.25381
1 3.283 -6.83938 -5.45729
1 3.60936 -6.1166 -5.98164
1 4.06399 -6.92086 -6.33222
1 4.25634 -7.68692 -6.98659
1 3.61331 -8.01794 -7.63059
1 -8.34838 -5.31012 0.382039
1 -8.8104 -5.21664 1.20429
1 -9.46973 -4.54862 1.37757
1 -9.90926 -5.2497 1.81613
1 -10.1968 -6.0987 1.55397
1 -9.79993 -6.39572 0.793716
1 -8.83513 -6.36712 0.819867
1 -8.6824 -7.27726 0.494804
1 -9.24458 -7.33877 1.2671
1 -10.1773 -7.09685 1.47499
1 9.32504 3.26636 -9.92913
1 9.85856 3.43153 -9.09235
1 10.0907 3.50251 -8.16204
1 9.36966 4.18178 -8.07766
1 9.12626 3.30901 -7.65402
1 9.30931 2.32089 -7.82771
1 8.54698 1.67747 -8.16064
1 8.01274 1.36961 -8.91237
1 8.38007 0.940581 -9.63592
1 8.83715 1.65737 -9.29784
1 10.2358 3.15422 8.18162
1 -10.2051 3.7301 7.78165
1 10.2309 4.2712 7.39332
1 9.92693 4.78289 6.58995
1 9.82449 5.61538 6.97908
1 9.49815 6.11055 7.7264
1 9.8661 6.64603 8.37654
1 10.4179 7.33265 8.92231
1 -9.98476 6.90453 8.47737
1 -9.4759 7.6789 8.66301
1 -9.85418 2.37853 2.36724
1 -10.5004 2.28607 3.11182
1 10.3523 1.51885 3.58419
1 -10.0557 1.40814 2.87819
1 -9.81879 1.46198 1.94285
1 -9.5445 2.08564 1.25681
1 -8.82159 2.71906 1.04163
1 -7.84993 2.80476 1.18398
1 -7.48302 2.13414 0.477365
1 -7.71354 1.73795 1.27623
1 1.08422 -3.90319 4.79633
1 1.31095 -2.96792 4.67491
1 2.28857 -2.91649 4.4524
1 2.10038 -3.92684 4.47972
1 1.77869 -4.78439 4.95476
1 2.64668 -4.81537 5.19607
1 2.80679 -3.78897 5.2288
1 3.36672 -2.97749 5.45397
1 3.8998 -3.54449 4.8667
1 3.55894 -2.76371 4.35635
1 6.10343 -9.37689 3.26883
1 5.45386 -9.93249 3.82486
1 5.25061 10.3347 4.13411
1 5.11977 10.068 3.17225
1 5.40471 -10.2385 2.73597
1 5.62047 -9.70966 1.9665
1 6.40934 -10.0231 2.4272
1 6.52431 -10.138 1.51347
1 5.87164 -9.73772 0.854912
1 5.42316 -10.4252 0.333412
1 8.0971 10.0313 3.10517
1 8.01214 -10.5513 3.82126
1 8.53247 9.86216 4.07466
1 8.08698 9.3657 4.78646
1 8.07434 9.47378 5.707
1 8.61101 9.67726 6.48857
1 7.85477 9.20589 6.92826
1 8.20966 8.35817 7.00681
1 8.18692 8.53062 6.06251
1 8.47817 8.39513 5.16773
1 9.06941 -1.51905 -2.28643
1 9.46601 -0.746455 -2.72028
1 8.74702 -0.051872 -2.8129
1 8.00067 0.21108 -2.30376
1 7.7592 0.469715 -3.24892
1 7.53937 -0.474056 -3.0763
1 7.28825 -0.699153 -2.1374
1 6.69978 0.143697 -2.1467
1 6.18462 0.393361 -2.90411
1 6.27899 1.10767 -2.2421
1 0.139812 8.79788 -5.83267
1 -0.631934 8.60751 -5.21508
1 -0.755596 9.37782 -5.79572
1 -0.0805301 9.96327 -6.1318
1 -0.536945 10.3218 -6.8885
1 -1.13355 9.85235 -7.50868
1 -1.61653 -10.4406 -7.37438
1 -1.5085 -9.79818 -8.05369
1 -0.619042 -10.1373 -7.96606
1 -0.355495 10.2459 -8.3117
1 6.65549 8.92763 -4.65409
1 6.80286 9.79064 -5.019
1 7.62409 9.67658 -5.60533
1 8.13019 9.21747 -4.85712
1 8.56338 9.90033 -4.2669
1 7.66217 9.54618 -4.00408
1 8.03287 10.2244 -3.45982
1 8.99662 10.211 -3.22054
1 8.62316 10.0494 -2.36907
1 9.40302 9.75682 -1.94079
1 9.56371 0.940602 7.92912
1 9.06718 0.750559 8.77524
1 8.77004 1.11662 9.58503
1 7.99899 1.73235 9.78534
1 8.73005 2.35671 9.87193
1 9.33908 3.01307 10.1866
1 10.2079 2.65978 10.3951
1 9.99266 2.46831 -9.8079
1 9.38068 2.44105 -9.14911
1 8.40296 2.54055 -8.84759
1 2.22545 -0.333009 -2.3575
1 1.82848 -1.13124 -1.91263
1 2.38237 -1.16723 -1.12149
1 2.86536 -0.457183 -0.702388
1 3.48961 0.245067 -0.783819
1 3.94558 0.656745 -1.46588
1 3.56976 -0.211946 -1.61887
1 2.75208 0.386699 -1.59075
1 3.22058 0.443885 -2.41011
1 3.78962 1.20526 -2.48474
1 -3.35762 -7.71496 -6.05269
1 -3.93302 -7.08287 -6.51989
1 -3.5783 -6.2821 -6.02722
1 -2.97946 -5.57537 -6.35191
1 -3.46593 -4.82017 -6.69115
1 -2.96551 -5.34235 -7.38384
1 -3.03764 -4.72421 -8.07691
1 -2.56044 -5.53789 -8.29638
1 -2.61273 -6.49565 -8.00528
1 -2.73534 -6.60675 -7.01745
1 -4.26295 -8.06117 5.53306
1 -4.25567 -8.16485 4.57578
1 -4.46501 -8.24961 3.6451
1 -4.73054 -7.34763 3.98676
1 -3.88801 -7.42436 3.51321
1 -3.06937 -7.80114 3.68796
1 -3.09125 -8.68987 4.0572
1 -2.22464 -8.81256 3.55647
1 -1.63533 -8.06652 3.63531
1 -2.0945 -7.75876 4.3655
1 8.05144 -9.49233 -2.43854
1 7.87883 -8.70159 -2.91059
1 8.13016 -9.36759 -3.5064
1 8.68257 -9.86063 -4.10042
1 8.58353 -10.237 -4.96168
1 8.97178 -9.37812 -5.13281
1 8.84327 -8.67494 -5.75739
1 8.86582 -8.97475 -6.66601
1 8.46767 -8.27895 -7.09129
1 7.76271 -7.87157 -7.53407
1 -0.991233 -10.1518 8.49955
1 -0.100755 -10.2451 8.43056
1 0.10344 -9.85683 9.28695
1 0.146159 -8.90673 9.50777
1 0.496267 -8.45012 8.66585
1 -0.0924946 -9.18911 8.50266
1 -0.982696 -8.86007 8.49184
1 -1.16776 -9.1124 9.42424
1 -0.708161 -8.23221 9.61658
1 -0.679197 -7.31259 9.36131
1 -5.6191 1.89532 6.51789
1 -5.52002 1.511 5.59148
1 -5.64747 0.972705 4.8042
1 -6.17725 0.527646 5.48851
1 -5.59347 -0.0487717 5.97075
1 -6.5187 -0.161611 6.26676
1 -6.49738 -0.967754 6.75353
1 -7.40052 -0.695104 6.64803
1 -7.07195 -0.588428 7.55264
1 -6.95202 0.240164 6.99854
1 9.43825 -5.73071 -9.88878
1 9.01274 -5.4352 -9.12031
1 9.64101 -5.75745 -8.4897
1 10.0031 -6.59559 -8.83448
1 9.69114 -6.78077 -9.67393
1 10.5429 -7.18952 -9.43157
1 -10.3353 -7.05069 -10.3325
1 10.5275 -6.84154 9.89041
1 -9.95154 -6.11939 9.65366
1 -10.3124 -6.44295 8.81693
1 -4.84753 -6.58135 -6.23832
1 -5.07215 -6.50322 -5.30144
1 -5.25918 -7.45935 -5.12505
1 -6.13743 -6.98704 -5.10309
1 -5.85332 -6.87459 -5.98901
1 -6.69158 -7.36628 -5.87459
1 -6.56153 -8.16797 -5.36893
1 -5.80769 -8.01983 -5.99764
1 -6.52637 -8.44769 -6.55983
1 -5.68246 -8.71088 -7.01695
1 -7.40694 -4.20222 5.90417
1 -7.16803 -5.10242 6.16729
1 -7.11087 -5.57248 6.95058
1 -7.04186 -6.10119 7.71456
1 -6.14344 -5.80125 7.93901
1 -6.43347 -4.88024 7.8656
1 -6.75123 -4.00692 7.94109
1 -5.85315 -3.88181 8.30831
1 -4.90419 -3.99788 8.04362
1 -4.26051 -4.68891 8.19189
1 -3.00021 0.999683 4.68484
1 -2.5907 1.57224 3.90318
1 -2.06137 2.12649 4.49638
1 -1.75899 1.52922 5.25378
1 -0.832103 1.69363 5.11607
1 -0.878307 1.34455 4.24896
1 -0.927021 1.53401 3.26762
1 -1.51309 2.20896 3.59463
1 -1.51117 3.08292 3.01822
1 -1.91021 3.55289 2.26918
1 -5.59756 -4.85976 -1.26863
1 -5.56906 -3.88939 -1.11127
1 -6.05577 -4.38584 -0.401072
1 -6.74098 -3.89766 -0.864291
1 -7.26444 -4.45505 -1.42621
1 -7.85073 -4.9435 -2.0077
1 -8.68832 -5.15309 -1.68077
1 -8.06171 -5.01261 -0.933012
1 -8.24777 -6.02505 -0.788788
1 -9.06429 -6.05097 -1.32282
1 -9.82554 5.64452 -5.08285
1 -9.80417 6.3578 -4.47447
1 -9.92695 7.14779 -5.00156
1 -9.25063 7.49204 -4.37502
1 -9.91166 7.96079 -3.92829
1 -9.43826 7.8699 -3.10876
1 -8.76714 7.19233 -3.32057
1 -7.83308 7.24979 -3.48081
1 -8.25188 6.66323 -4.14376
1 -9.03187 6.20435 -3.76904
1 -0.285826 -4.16637 -2.06678
1 -0.843918 -3.75716 -2.71321
1 -1.08611 -4.6375 -2.46219
1 -1.77824 -4.19283 -2.94453
1 -2.00502 -5.0362 -3.38564
1 -1.17084 -5.06328 -3.9636
1 -0.943723 -4.53487 -4.7855
1 -0.187694 -4.78337 -4.26323
1 0.196815 -3.91784 -3.99803
1 1.11195 -3.72019 -3.8884
1 -8.94698 1.26901 5.02512
1 -9.11498 0.969612 4.13256
1 -9.98164 0.741805 4.03069
1 -9.8187 1.71276 4.05461
1 -10.4565 1.40264 4.80361
1 10.4384 0.457054 5.06642
1 10.0227 0.606461 4.26353
1 10.0789 -0.325174 4.44596
1 9.90961 -1.24803 4.71973
1 9.99807 -2.19481 4.59198
1 1.17838 9.22768 4.96557
1 1.20421 8.29378 5.00998
1 1.15613 7.42235 4.49858
1 2.05777 7.8414 4.41944
1 2.76385 7.33788 3.9306
1 3.17848 7.8869 3.28768
1 3.86431 8.55683 3.19385
1 3.86827 9.47178 2.88097
1 4.58414 9.61186 2.29021
1 4.20627 10.3977 2.63798
1 1.39029 3.75812 8.0719
1 2.32993 3.33411 7.90351
1 1.9182 2.75766 8.59865
1 2.77992 3.17691 8.7448
1 2.75428 4.17876 8.54525
1 2.28486 4.49166 7.73539
1 1.77217 4.58898 8.60006
1 1.27353 5.3912 8.69648
1 0.275708 5.33163 8.63838
1 -0.503836 4.71175 8.76088
1 6.8441 4.5841 10.28
1 6.61896 5.14209 -10.0753
1 6.89013 4.4054 -9.57331
1 6.26373 3.92277 -9.98382
1 5.59488 4.25456 10.4705
1 5.63382 5.28872 10.4763
1 4.71814 5.63998 10.4376
1 4.66041 6.17016 -9.86618
1 3.72365 6.31724 -9.9477
1 3.13522 7.06521 -10.1021
1 0.201592 4.51503 6.35495
1 -0.436113 3.77638 6.60204
1 -0.183755 3.89253 5.63377
1 -0.104296 4.38458 4.81102
1 -0.161132 3.38589 4.45681
1 0.387127 3.49583 3.69139
1 0.880349 2.72695 3.68904
1 0.944954 2.63322 2.79173
1 0.307789 1.96072 3.15604
1 0.0636781 1.22088 3.77382
1 -8.98473 9.96977 -4.1354
1 -9.76182 10.3101 -4.43789
1 -10.4553 9.87597 -4.93141
1 10.1781 10.0937 -5.72449
1 -10.2932 10.4558 -6.25179
1 9.97887 -10.5431 -6.80734
1 9.97733 10.0475 -7.66616
1 9.55475 9.36736 -8.2379
1 9.01475 9.14576 -9.04867
1 8.58604 9.84659 -8.51574
1 8.60762 4.29928 -1.94408
1 7.80801 4.72107 -2.2655
1 7.80589 4.77069 -1.31472
1 8.28704 4.4462 -0.618704
1 8.98594 3.80421 -0.719335
1 9.33858 4.17698 0.0837319
1 10.1032 4.51567 0.606667
1 9.58486 4.93979 1.23408
1 9.68227 4.02825 1.56216
1 10.1244 3.47047 0.865347
1 8.94464 0.835107 0.297568
1 8.84733 1.76548 0.558522
1 9.40905 1.29271 1.19494
1 8.61631 1.72193 1.5557
1 9.32528 1.93467 2.15216
1 9.26927 2.37002 3.05319
1 9.41999 3.30224 2.93459
1 9.84018 2.97077 3.67944
1 9.98688 2.42761 4.40048
1 9.74136 1.48726 4.56204
1 5.11707 -8.99613 -9.13496
1 5.73448 -8.5775 -9.68522
1 5.21975 -7.91157 -9.25789
1 6.17194 -7.861 -9.02434
1 6.8602 -7.06383 -9.16184
1 7.27849 -7.98313 -9.00458
1 6.95614 -7.95856 -9.87554
1 7.0532 -8.9632 -9.72542
1 7.35198 -9.92763 -9.68908
1 8.163 -9.84093 -10.1591
1 0.669999 -6.06665 -5.8251
1 0.108304 -5.68462 -5.03674
1 0.708321 -5.01477 -4.8801
1 1.44555 -5.45461 -5.31019
1 2.13454 -4.98708 -5.79605
1 2.78113 -4.73123 -6.4549
1 1.8838 -5.08311 -6.8814
1 2.03742 -4.12796 -7.0874
1 2.63779 -3.76058 -7.79537
1 2.22166 -4.5935 -8.08062
1 -7.73397 7.22996 -8.62004
1 -7.98852 7.9709 -9.18397
1 -7.51322 7.31248 -9.78721
1 -7.52695 6.58466 -10.3679
1 -8.34245 6.92581 10.4052
1 -9.11465 7.30125 -10.4085
1 -8.32603 7.85339 -10.3316
1 -8.81363 8.44243 -9.76305
1 -9.66588 8.12327 -10.1268
1 -9.46392 7.86897 -9.28294
1 1.35112 6.09992 0.77705
1 0.903201 6.8298 0.353479
1 0.0244426 7.17079 0.64481
1 -0.583885 7.86616 0.545356
1 -1.05452 8.61506 0.400664
1 -0.64485 9.25953 0.958977
1 -0.652355 8.48266 1.46845
1 0.0323605 7.86318 1.50157
1 0.716901 7.95485 0.887571
1 0.709194 7.88189 -0.0850979
1 -7.87299 -9.86557 2.27698
1 -8.46796 -9.80901 1.48338
1 -9.11112 -9.79325 2.2183
1 -9.54979 -9.31204 1.49313
1 -9.05854 -9.35234 0.681743
1 -9.31883 -8.48417 0.964048
1 -8.40325 -8.19667 0.924105
1 -7.75605 -8.41365 0.231165
1 -7.29106 -8.21174 -0.551224
1 -7.45333 -8.13949 -1.51617
1 7.30769 -9.19483 10.2707
1 7.79502 -8.43228 9.76249
1 7.20246 -8.61567 9.05654
1 6.51938 -8.45867 9.81686
1 5.81803 -8.39846 9.18517
1 5.83398 -8.5681 8.21228
1 6.78737 -8.64724 8.06626
1 7.00451 -9.57489 8.14151
1 6.04139 -9.82968 8.1568
1 6.26614 -9.14198 7.40718
1 4.16781 -10.3064 -3.82432
1 3.92187 9.96109 -3.46977
1 4.80888 9.82324 -3.3174
1 5.10083 10.1881 -4.15133
1 6.02372 9.86967 -4.34732
1 5.85368 10.179 -5.20903
1 5.91541 9.33964 -5.61025
1 5.51681 8.52877 -5.65654
1 5.15439 8.00322 -6.35272
1 4.94334 8.38698 -7.23538
1 2.84249 -0.945761 5.54514
1 2.70159 -1.52469 6.30259
1 3.4177 -1.9301 5.82472
1 3.72285 -1.40353 6.6401
1 4.1532 -0.554606 6.84658
1 4.76874 -0.313787 7.50258
1 4.9912 -1.30192 7.47468
1 5.26749 -2.22093 7.5292
1 5.1203 -1.97792 8.45339
1 5.29014 -2.76269 8.98038
1 2.59869 1.65974 5.43297
1 1.88846 1.97556 5.98513
1 2.46815 1.49147 6.53816
1 2.94022 2.31555 6.42865
1 2.85987 2.81554 7.16089
1 3.47663 3.25063 6.5805
1 3.49725 3.97429 7.29812
1 3.86172 4.25026 6.45354
1 4.60625 4.65964 6.8425
1 5.00976 4.48142 5.9616
1 2.43006 1.11645 -8.18709
1 2.77677 1.43951 -7.35446
1 3.6129 1.85597 -7.1437
1 3.79601 1.26963 -6.28948
1 3.2376 2.02786 -5.85079
1 3.05015 1.25006 -5.35401
1 2.24121 1.64446 -4.94947
1 2.43046 1.02221 -4.22374
1 1.81621 0.837025 -3.43206
1 1.68718 0.55762 -2.51426
1 -2.65812 3.19207 -9.34262
1 -1.89284 2.60787 -9.61535
1 -1.94109 2.56049 -10.5515
1 -2.83674 2.3872 10.3093
1 -3.46544 3.08763 10.1425
1 -2.60279 3.45952 10.0177
1 -2.84495 4.37431 9.8905
1 -3.02798 3.94918 9.05184
1 -2.22575 4.57732 8.92855
1 -1.59916 4.49589 8.19964
1 -5.81553 4.81499 -2.90844
1 -6.46773 4.40205 -3.56986
1 -5.77632 4.08077 -4.04644
1 -5.765 5.06746 -3.97514
1 -5.94348 5.86934 -4.506
1 -6.07148 6.48256 -3.75915
1 -5.60336 6.55871 -2.97782
1 -5.43688 7.46044 -2.51798
1 -5.87445 7.80853 -1.72541
1 -5.10312 8.30297 -1.5233
1 3.56898 9.79784 1.9203
1 2.97024 10.3904 2.35413
1 2.60837 10.1375 1.47544
1 2.91429 10.1244 0.572282
1 2.38476 9.3192 0.645331
1 3.15601 8.70166 0.600142
1 3.7454 9.42731 0.921148
1 4.66634 9.56501 1.19056
1 5.52994 9.5298 0.850975
1 4.86506 9.08934 0.281971
1 0.012659 9.51365 -0.494283
1 -0.878938 9.67304 0.0524799
1 -1.77827 10.0655 0.223213
1 -1.83173 -10.3246 0.84056
1 -1.74024 10.2034 1.5082
1 -0.800444 10.4548 1.15528
1 -0.716375 -9.7763 1.40491
1 0.00890407 -9.97875 0.835232
1 0.279552 -9.08655 1.23005
1 1.00593 -8.35701 1.09849
1 2.83678 -3.51099 6.40089
1 1.9348 -3.71282 6.60483
1 1.5416 -3.37325 7.35821
1 1.26448 -2.90927 8.16794
1 1.93575 -2.44641 7.66876
1 2.75689 -1.98882 7.78818
1 2.86517 -2.51103 6.95173
1 2.589 -3.32667 7.382
1 2.34376 -3.53859 8.2366
1 3.24823 -3.83507 8.01403
1 -2.07971 9.84549 -4.15547
1 -1.69844 9.37447 -3.38327
1 -1.39478 10.2012 -3.01716
1 -0.574099 -10.4236 -2.87389
1 0.139048 10.1913 -2.61659
1 -0.569617 9.57871 -2.30111
1 -1.02151 10.4064 -2.02207
1 -0.569605 9.959 -1.32591
1 0.347003 9.88253 -1.60699
1 0.328995 -10.5366 -0.881842
1 -8.71988 5.17644 5.8108
1 -7.86091 5.6834 5.89187
1 -7.94053 5.03225 5.10254
1 -8.57358 5.50178 4.58591
1 -9.29216 5.48529 3.98881
1 -9.61155 4.74722 4.38651
1 -8.90251 4.66323 4.96147
1 -8.30812 4.04752 4.50648
1 -8.0974 3.97765 5.42946
1 -7.37349 4.3634 5.99765
1 0.990181 0.5752 6.5636
1 0.88393 -0.226222 6.10646
1 0.81674 -0.868649 5.39727
1 1.74867 -1.10995 5.08526
1 2.03467 -1.81377 4.41513
1 1.56645 -2.1489 5.17048
1 2.43547 -2.30782 5.59587
1 2.93621 -2.02264 4.85489
1 3.58282 -1.26847 4.74889
1 2.64625 -0.934904 4.51818
1 8.4114 -4.46225 1.78513
1 8.54239 -5.38236 1.81063
1 9.44206 -5.64483 1.39435
1 9.38342 -6.10694 2.20553
1 10.1562 -5.79096 2.64369
1 -10.2698 -6.39081 2.595
1 10.0689 -6.88427 2.57409
1 -10.5459 -7.70944 2.5387
1 9.8795 -8.28138 2.31972
1 9.57851 -8.81778 2.9919
1 6.65529 7.51884 -6.33385
1 6.06847 6.82985 -6.56779