8000
Atoms. Timestep: 0
1 -5.16224 -1.64905 8.5583
1 -5.586 -1.65763 7.66786
1 -5.90861 -2.55787 7.57203
1 -5.7543 -2.16261 6.74397
1 -5.05035 -1.75815 6.26695
1 -5.3102 -2.53199 5.75615
1 -4.91309 -2.82935 6.57575
1 -5.08705 -3.66638 6.96349
1 -4.66241 -3.57879 7.80492
1 -3.72682 -3.17394 7.67967
1 -4.99739 -3.67494 10.4983
1 -5.01692 -3.11158 -9.82798
1 -5.91072 -2.79078 -10.2468
1 -5.54189 -2.26883 -9.5354
1 -6.46699 -2.27035 -9.44118
1 -6.25861 -3.03555 -8.92888
1 -6.92634 -3.69537 -8.83321
1 -7.19957 -2.97748 -8.34588
1 -7.88796 -3.02834 -9.07424
1 -8.49663 -3.66568 -8.72238
1 1.57971 3.45986 -6.74769
1 1.14043 4.03389 -7.45362
1 0.737401 3.62814 -8.20186
1 0.17327 4.40738 -7.95227
1 -0.628529 4.45479 -8.56189
1 -0.647239 3.78774 -9.23796
1 0.31767 3.7916 -9.15883
1 0.495181 2.76842 -8.92845
1 0.938941 2.53983 -8.11069
1 1.56109 1.86428 -8.07983
1 10.2506 0.965446 2.22756
1 -10.0196 0.639417 2.13053
1 -10.1612 1.336 1.438
1 10.4097 0.999875 0.697137
1 10.3155 0.535429 -0.128714
1 9.44663 0.554239 0.400776
1 8.66038 0.771854 -0.091761
1 9.0307 1.33834 -0.764859
1 8.14122 1.45261 -0.924136
1 8.16513 2.38738 -0.646237
1 4.43057 -4.05724 7.6981
1 5.24363 -4.10386 7.16599
1 4.61834 -4.85858 7.18621
1 4.47333 -5.06675 8.12377
1 5.25933 -5.30947 8.55445
1 5.50147 -5.44926 7.62569
1 5.36016 -5.61791 6.71452
1 4.94355 -6.35225 6.28448
1 4.67278 -7.33022 6.12326
1 4.1225 -7.74927 5.4867
1 10.1586 8.88055 -4.15788
1 9.97684 8.66329 -3.21643
1 9.51452 7.95595 -2.91257
1 10.3785 7.56275 -3.25721
1 9.72532 7.05775 -3.73876
1 10.39 6.4838 -3.98659
1 9.93344 5.94317 -3.22892
1 9.25109 6.03648 -3.89341
1 8.28452 6.20673 -3.9964
1 8.7247 6.85313 -4.54018
1 -6.25813 7.68399 -9.1004
1 -5.60531 7.00797 -9.0645
1 -5.5385 7.34789 -8.23153
1 -4.6602 7.06832 -8.17856
1 -4.15113 6.77611 -7.32964
1 -3.24003 6.96329 -7.3094
1 -3.27761 7.2051 -8.19655
1 -3.56717 7.75156 -8.97084
1 -4.45814 8.12233 -8.88325
1 -4.57599 8.14362 -9.77336
1 8.21246 -9.89408 3.15345
1 7.54043 -9.66428 2.51346
1 7.49696 10.569 2.66208
1 7.484 10.1538 1.8174
1 6.95717 9.39681 1.49259
1 6.82615 10.198 0.861967
1 6.7724 10.1638 -0.0796485
1 5.93997 10.1771 -0.584288
1 5.57329 9.56006 -1.20222
1 5.7237 8.62317 -1.42887
1 1.53943 5.28888 -8.22853
1 2.40605 5.17387 -8.662
1 2.74896 4.24393 -8.6219
1 1.83756 4.18742 -8.37004
1 1.03736 4.50658 -8.81237
1 0.568441 5.04209 -9.52297
1 0.49478 5.77296 -10.0692
1 0.127676 6.41775 -9.45714
1 0.310013 7.40872 -9.40011
1 0.348471 7.40969 -10.3912
1 -9.5402 8.66373 5.81091
1 -10.2616 8.33271 6.22092
1 10.4041 7.85031 5.56375
1 -9.94254 7.39082 5.33645
1 -9.70049 6.56487 4.85518
1 -8.91062 6.01885 4.84189
1 -8.46938 6.82543 4.49485
1 -8.13923 6.55276 5.3524
1 -8.8433 6.71455 5.98759
1 -8.14637 7.21555 6.3079
1 -2.09893 3.5446 0.492119
1 -1.34594 3.6296 -0.128119
1 -1.32386 4.21534 -0.876041
1 -0.915239 3.6647 -1.57395
1 -1.46418 3.21453 -1.00889
1 -1.97134 3.43988 -1.80654
1 -2.67438 3.57239 -2.56585
1 -2.57554 2.68566 -2.17672
1 -2.30768 1.82076 -2.61641
1 -3.15401 1.64203 -3.00207
1 -1.48008 -7.09572 9.69361
1 -1.69694 -7.3101 8.83842
1 -0.75757 -7.23356 8.76446
1 -0.205764 -7.87098 8.335
1 0.318458 -7.24078 8.77938
1 -0.00141631 -7.69764 9.58239
1 -0.105698 -7.02879 10.2081
1 -0.471099 -6.45142 9.51479
1 -0.900202 -5.81169 10.1792
1 -1.72707 -5.66544 9.6418
1 -1.63944 3.94031 -2.89459
1 -2.3611 4.5162 -2.9462
1 -2.59063 5.34246 -2.48054
1 -2.70277 6.29745 -2.2861
1 -2.45767 6.02456 -3.14359
1 -2.34626 5.34845 -3.82424
1 -3.01108 5.98266 -4.13086
1 -3.35418 6.89181 -4.21579
1 -3.58326 7.48325 -3.44211
1 -3.26636 6.60437 -3.28114
1 -1.64708 5.89904 -4.9369
1 -2.20956 5.10137 -4.75035
1 -1.39508 5.04725 -5.30149
1 -1.18674 4.38663 -4.648
1 -1.08899 3.43403 -4.72695
1 -0.688035 2.59797 -5.18417
1 0.0238022 3.22561 -5.31288
1 0.410619 4.07363 -4.93312
1 0.807629 3.26847 -4.59519
1 0.898743 2.43106 -4.04346
1 4.32477 -0.111953 -2.3728
1 4.73893 0.30342 -3.13694
1 4.89658 0.584194 -4.02082
1 4.6139 1.19529 -4.76297
1 5.15909 2.06365 -4.61241
1 5.60836 1.38638 -4.10686
1 6.17194 2.16256 -4.30735
1 6.78559 2.61371 -3.66577
1 6.70994 2.82709 -2.74824
1 6.40884 3.5429 -2.27078
1 -9.49958 -3.56002 -2.9729
1 -9.13663 -3.07478 -3.74252
1 -9.33259 -2.18386 -3.99743
1 -9.48656 -2.22209 -4.97566
1 -8.8799 -2.99259 -5.05683
1 -8.30252 -3.35052 -4.37544
1 -7.77859 -3.05943 -5.06011
1 -8.08971 -2.70968 -5.91317
1 -8.58236 -3.48981 -5.86144
1 -8.92122 -3.00628 -6.58114
1 8.57023 -1.46997 -5.4751
1 7.82548 -1.98565 -5.77318
1 7.52116 -2.49745 -5.01039
1 6.82424 -2.24612 -4.46671
1 6.06041 -2.17289 -5.12886
1 5.98074 -2.8486 -5.83728
1 6.47923 -3.50552 -6.2776
1 6.89592 -2.732 -6.57985
1 7.68925 -2.96063 -6.17957
1 8.26077 -2.81761 -6.9446
1 -6.81123 0.349519 -6.81388
1 -7.1543 0.205156 -5.90404
1 -6.28785 -0.152396 -5.60429
1 -6.5616 -0.566105 -6.42852
1 -6.88421 -0.572171 -7.42592
1 -6.69862 0.271097 -7.92438
1 -7.65384 0.0984301 -7.80554
1 -8.56283 0.174358 -7.5789
1 -9.20861 -0.559149 -7.30756
1 -10.0748 -0.721326 -7.68373
1 -2.67654 4.31852 -7.02124
1 -3.20662 4.4132 -6.17879
1 -2.3054 4.82291 -6.1654
1 -2.03934 4.19089 -5.44407
1 -1.34331 4.33148 -6.12968
1 -1.65636 3.92819 -6.96978
1 -0.683333 4.29626 -7.04864
1 -0.795665 5.07384 -6.48487
1 -0.144338 5.2183 -5.79796
1 -0.756201 5.93095 -5.82277
1 -9.41014 -7.87082 -8.78364
1 -10.1095 -7.8689 -8.18149
1 -9.72628 -7.03944 -7.96687
1 -9.48085 -7.36772 -7.14886
1 -9.93879 -8.29117 -7.04153
1 -8.9755 -8.37798 -6.70887
1 -9.18237 -9.09611 -7.30909
1 -8.58895 -9.82564 -7.51951
1 -8.57048 -9.6566 -6.62427
1 -8.15888 -10.4871 -6.56837
1 9.16678 9.80118 -5.35857
1 9.68394 -10.5713 -5.5886
1 9.74134 10.57 -4.68499
1 9.19669 -10.2963 -4.03616
1 9.60485 -9.4977 -3.90981
1 9.61272 -8.57923 -3.46363
1 10.1841 -7.89985 -3.05253
1 -10.0927 -8.08528 -2.67019
1 -9.13404 -8.17304 -2.80436
1 -9.7678 -8.61189 -3.42266
1 5.7819 3.54418 -10.1767
1 5.46366 4.23675 -9.51844
1 4.69635 4.42794 -9.03322
1 4.21785 3.78765 -8.53561
1 4.75721 3.21963 -9.09766
1 4.6763 3.19593 -10.0044
1 3.82306 2.97656 -10.329
1 3.89375 2.13841 -9.81275
1 4.31682 1.47184 -9.21417
1 4.86787 2.22642 -9.43319
1 3.92296 6.39741 -4.37277
1 3.51787 7.29181 -4.53838
1 4.30077 7.50951 -4.06132
1 4.48583 7.64245 -3.17873
1 4.10271 6.69504 -3.18876
1 3.39024 6.15211 -3.48297
1 3.70221 5.64524 -2.64924
1 3.45303 6.05856 -1.79429
1 4.04674 6.51861 -1.19337
1 3.15309 6.90827 -1.05475
1 2.63638 5.36689 2.21075
1 3.43194 4.89236 2.56848
1 3.5281 5.52266 3.45702
1 3.4324 6.08581 4.26203
1 4.23695 6.54333 4.10153
1 4.8884 7.03505 3.64512
1 5.37515 7.27659 2.91468
1 5.86497 7.48286 2.15754
1 6.50011 7.13552 1.51788
1 6.18817 7.98168 1.16635
1 5.71907 -1.63635 9.3574
1 6.41485 -2.23943 9.32994
1 6.49747 -2.80324 10.1125
1 7.05873 -3.55542 9.91027
1 6.2225 -3.76272 10.365
1 6.84625 -3.80503 -10.0338
1 7.74138 -3.69315 -10.355
1 8.63422 -3.33615 -10.3862
1 8.71866 -4.09661 -9.90092
1 8.45601 -4.7743 -9.30428
1 -7.07651 1.4374 1.53005
1 -7.60051 1.75448 2.33384
1 -7.31506 0.804747 2.45411
1 -8.28863 0.682482 2.61632
1 -9.2279 0.439041 2.88067
1 -8.94217 1.22272 3.45242
1 -8.33164 1.92795 3.17613
1 -9.2933 2.21786 3.18945
1 -9.4874 3.05993 2.70606
1 -8.56492 3.02731 3.04075
1 -1.35167 -7.54952 -5.73522
1 -1.79384 -7.69095 -6.54279
1 -2.36518 -8.28689 -6.94715
1 -2.89229 -8.73708 -7.64573
1 -2.66019 -7.91406 -8.16316
1 -3.32338 -7.62321 -8.84488
1 -3.63548 -7.92643 -8.00942
1 -4.02037 -7.05485 -7.89827
1 -4.07714 -6.94391 -8.79209
1 -4.76868 -7.25708 -9.35797
1 4.5863 8.46221 1.87705
1 5.00486 7.66992 1.68639
1 5.16032 8.25421 0.92977
1 4.19418 8.15911 0.707448
1 3.8077 8.97364 1.13093
1 4.45197 9.35178 0.524491
1 4.22935 10.0993 0.0482049
1 4.94165 10.1603 -0.594811
1 4.69695 -10.0935 -0.391569
1 4.77292 -9.16047 -0.387155
1 7.84181 -7.18193 3.03963
1 7.81682 -8.16264 3.02311
1 8.41381 -7.90716 3.66289
1 8.78448 -8.04458 4.53545
1 8.97212 -7.45966 5.23532
1 8.2073 -7.83782 5.58696
1 8.47565 -7.20729 6.22945
1 9.16091 -6.62167 6.05814
1 8.45436 -6.21164 5.60922
1 7.96659 -6.87876 5.19129
1 -7.97142 3.08797 1.59222
1 -7.81673 2.22806 1.40704
1 -7.00888 2.55721 1.77184
1 -6.56522 3.31617 2.08039
1 -5.74612 3.70377 1.84894
1 -5.39111 4.61145 1.62908
1 -4.76995 4.00166 1.14923
1 -3.94299 4.52947 1.26974
1 -3.14361 4.08269 0.940914
1 -3.04136 3.18357 0.62609
1 -1.50408 4.26092 3.74717
1 -1.60348 4.01109 2.78196
1 -2.39439 4.22569 3.18162
1 -2.45747 4.25309 4.18651
1 -3.02687 3.46271 4.31892
1 -2.21862 3.10159 3.9038
1 -2.31718 2.27044 4.42752
1 -1.35078 2.54662 4.23531
1 -0.898705 3.394 4.13637
1 -0.833982 3.54348 3.21809
1 2.84175 -1.30909 -8.71614
1 2.40918 -0.376662 -8.90619
1 3.14693 -0.0552176 -9.56076
1 2.17725 0.230928 -9.65237
1 2.26655 -0.0750193 -10.5644
1 2.63085 -0.240803 9.70529
1 3.15577 -0.121863 8.92678
1 2.52523 -0.0147882 8.2025
1 1.9255 -0.694599 7.96858
1 2.20832 -0.844122 8.84745
1 -9.39116 4.10993 -2.29378
1 -9.9439 3.32716 -2.47102
1 -9.18009 2.87718 -2.19896
1 -9.97783 2.67602 -1.75051
1 -10.0357 2.37786 -2.6642
1 -9.06105 2.27819 -3.03923
1 -8.92688 1.29964 -3.10028
1 -9.34571 0.839986 -2.36312
1 -9.546 1.5576 -1.82226
1 -8.63986 1.88793 -1.78043
1 4.28511 4.06105 6.56063
1 5.06122 3.70726 7.10085
1 5.06758 3.27048 6.24366
1 5.92331 2.9236 6.63476
1 5.36344 2.4081 7.32638
1 6.31111 2.63414 7.51872
1 6.4404 1.71556 7.50322
1 6.64844 0.763894 7.31292
1 6.60615 0.738989 6.34217
1 7.07812 1.34097 5.75767
1 10.2222 4.25103 -5.04814
1 -10.4818 4.06518 -4.24105
1 10.0303 3.31015 -4.32988
1 9.89771 2.54209 -4.94299
1 -10.3529 2.892 -5.08221
1 -9.53483 2.60236 -5.41695
1 -10.1552 1.94448 -5.70353
1 -9.95224 1.48883 -6.50197
1 -10.4186 2.22102 -6.95031
1 -10.4857 2.30751 -7.89984
1 2.94748 2.19743 -4.43508
1 3.48365 1.948 -3.73776
1 4.06976 2.31564 -3.0975
1 4.83405 1.88453 -3.41536
1 4.44525 1.33024 -2.75234
1 4.1528 1.61141 -1.92349
1 5.04952 1.8971 -1.74964
1 5.84442 1.40221 -1.6108
1 6.05972 1.83032 -2.46039
1 5.41001 1.17824 -2.67708
1 7.70582 5.00849 -10.5701
1 8.24158 4.20572 -10.4084
1 8.85388 3.50565 -10.0096
1 9.36529 4.2721 -9.78767
1 9.34223 3.71889 -9.03466
1 8.47572 3.43322 -9.05577
1 8.5804 4.15767 -8.39505
1 9.15371 4.88572 -8.84373
1 9.52519 4.62231 -8.0012
1 9.68299 4.8994 -7.07492
1 -7.37102 -3.6745 -7.46089
1 -7.43279 -4.50189 -7.95844
1 -8.34612 -4.38652 -7.94019
1 -8.09838 -5.37103 -7.95946
1 -8.21147 -4.84515 -8.89108
1 -7.71249 -4.18173 -9.47018
1 -7.2948 -5.05199 -9.34379
1 -7.30562 -6.02939 -9.0511
1 -7.23837 -6.94637 -8.91943
1 -8.04022 -7.42814 -8.92867
1 3.55053 -5.17111 0.000198832
1 3.38945 -4.58475 0.765432
1 3.08187 -4.89174 1.54812
1 3.40141 -4.29308 2.24037
1 3.6749 -4.61184 3.09303
1 4.45885 -4.27526 3.47934
1 4.32038 -3.48524 3.05477
1 3.9592 -3.27304 3.86726
1 4.41519 -2.49871 3.53314
1 4.42191 -2.46995 2.45776
1 5.00979 -1.09153 8.50128
1 5.66169 -0.430274 8.28488
1 6.25639 -0.254555 7.52594
1 7.15213 -0.484216 7.16394
1 7.1275 -1.37332 6.88352
1 7.588 -1.0815 6.07129
1 6.92362 -1.61169 5.65847
1 7.54894 -1.38828 5.04213
1 8.31243 -0.816835 5.33304
1 8.43056 -1.8294 5.47016
1 -3.43666 -0.197067 5.09396
1 -2.5163 -0.170752 4.93268
1 -1.92985 0.0679397 5.65142
1 -2.38535 0.235759 6.55519
1 -2.82746 -0.0142125 7.36455
1 -2.35445 -0.185847 8.23529
1 -1.81014 -0.950455 8.11664
1 -2.19201 -1.41208 8.87281
1 -2.30957 -2.32636 8.54145
1 -1.54902 -2.73669 8.71969
1 5.82349 -6.94215 0.682599
1 5.62526 -7.90713 0.696125
1 5.63636 -8.10614 -0.229882
1 5.33871 -7.20134 -0.278261
1 6.171 -7.3315 -0.725637
1 6.50481 -7.67818 -1.50614
1 7.05576 -7.85176 -2.27112
1 7.95395 -7.74215 -2.16496
1 8.64093 -7.30386 -1.69413
1 8.24079 -7.29501 -0.839436
1 4.52412 2.25987 6.10376
1 4.12483 1.68923 5.4047
1 3.59633 2.46916 5.60187
1 2.95479 1.76478 5.61189
1 2.7142 0.831153 5.81996
1 2.07902 1.10186 5.14378
1 1.73226 1.73389 4.54423
1 1.67877 0.889889 4.09952
1 1.15264 0.957675 3.24904
1 0.658248 0.687634 4.05365
1 -7.88262 5.69139 4.07599
1 -8.78697 5.45598 3.90976
1 -8.54064 6.3169 3.57012
1 -9.12784 6.9724 3.33493
1 -9.30677 7.87797 2.9218
1 -10.1385 7.74877 2.47628
1 10.2793 7.50852 1.88407
1 9.51519 7.36984 1.25928
1 9.37086 6.75937 1.95904
1 9.37198 7.2093 2.78801
1 1.88473 1.95828 5.73641
1 0.953731 1.87438 5.93294
1 0.530208 1.05952 5.92364
1 0.400311 0.334051 5.29699
1 1.01349 1.00721 5.06289
1 0.164751 1.32668 4.79919
1 0.761681 1.8628 4.13754
1 1.09562 2.17186 3.29005
1 1.90354 2.63679 3.62492
1 2.70565 3.09437 3.60083
1 8.31353 8.36508 -10.454
1 8.02598 9.21413 -10.0152
1 8.31437 9.42922 10.2148
1 9.00367 8.7519 10.0995
1 9.43182 8.11105 -10.4586
1 8.97647 7.81169 -9.61643
1 9.43331 8.60209 -9.27625
1 10.1441 8.283 -8.7183
1 9.7379 7.61258 -8.11332
1 9.21911 7.16207 -7.4886
1 -1.05581 8.16944 1.12555
1 -1.47388 8.95063 0.875756
1 -1.28935 9.87801 0.824144
1 -0.457073 9.43299 0.961563
1 0.186296 9.19616 1.57126
1 0.334549 8.68198 0.736921
1 0.85911 8.84477 -0.0775576
1 0.235818 9.50811 0.16224
1 -0.407383 10.2492 0.174209
1 0.30394 10.4094 0.907952
1 -9.6218 -0.491507 9.86494
1 -9.1142 -1.27728 9.9347
1 -8.52613 -0.891605 -10.5401
1 -9.15674 -1.52118 -10.1957
1 -9.51982 -0.607957 -10.1326
1 -9.67391 0.31018 -9.88299
1 -10.3728 0.168014 -9.25669
1 -9.9751 0.291397 -8.29562
1 -10.4594 1.02251 -7.72349
1 10.2333 0.0485742 -7.69098
1 3.24813 -9.3388 7.89952
1 2.62295 -10.0365 8.06453
1 2.21875 10.2691 7.71642
1 1.41073 -10.4531 7.92842
1 1.40066 10.4262 6.89051
1 1.84332 -10.4913 6.07011
1 2.42131 -10.2984 6.93519
1 2.87955 -9.65369 6.46388
1 2.8176 -10.0516 5.59108
1 2.04603 -9.85133 5.04047
1 7.62764 0.240361 -8.27663
1 8.08201 0.687763 -8.95603
1 8.31169 0.431706 -9.89186
1 9.07559 -0.0185123 -10.3087
1 9.01138 0.331613 9.96489
1 8.10575 0.577146 9.66094
1 8.66161 0.344763 8.91503
1 9.01919 1.26213 8.87871
1 8.36948 1.5019 8.26851
1 9.00401 2.2434 8.21447
1 -0.321192 -7.42933 -9.96701
1 -0.645404 -8.33034 -10.0962
1 -0.883246 -7.91026 10.2607
1 -1.58332 -7.50998 -10.3527
1 -2.42187 -7.81719 10.4735
1 -3.0588 -8.5518 10.3735
1 -2.20804 -9.09867 10.4266
1 -1.54582 -9.53505 9.83559
1 -1.75349 -9.01549 9.05206
1 -2.20969 -8.88468 8.26144
1 -7.97788 -2.75162 -1.39422
1 -7.00333 -2.83482 -1.58697
1 -6.73549 -3.73401 -1.53662
1 -6.32871 -3.30908 -0.833573
1 -5.63115 -3.84862 -0.440364
1 -5.25665 -3.54403 0.356081
1 -5.1527 -4.46664 0.763935
1 -5.86771 -4.00869 1.21888
1 -6.21231 -3.12855 1.36762
1 -5.58357 -2.46158 1.5252
1 2.09676 -10.3624 8.936
1 2.01822 9.83545 8.76989
1 2.24284 9.04926 8.20809
1 1.81074 8.35346 8.68473
1 1.8541 7.87472 9.45705
1 1.87061 8.68684 9.8731
1 2.72556 8.21158 9.96247
1 2.98556 8.75478 -10.4704
1 2.82156 8.28154 -9.61155
1 2.08319 8.89263 -9.73824
1 10.3045 5.12649 8.66467
1 -10.2758 4.63123 9.15447
1 -9.86708 4.85316 8.26185
1 -9.64093 5.28301 9.07701
1 -9.37149 5.8584 9.80914
1 -9.44967 6.31431 -10.5157
1 -9.16215 5.37114 -10.4136
1 -8.70427 4.56545 10.4104
1 -9.61677 4.54375 -10.3987
1 -10.4266 4.32831 10.3709
1 -2.16305 2.10411 7.36342
1 -1.56922 2.81239 7.50632
1 -0.769888 3.16702 7.94276
1 -0.371647 3.21027 7.10492
1 -1.06876 3.66279 6.64337
1 -0.682781 4.20686 7.39952
1 -0.042211 4.71262 7.89166
1 0.865043 4.97074 8.0903
1 0.63218 5.55094 8.78476
1 -0.159706 5.9942 8.57566
1 -0.345423 3.70811 -10.4847
1 -1.29384 3.69512 10.4312
1 -1.56642 3.76043 -9.81808
1 -1.96936 2.94246 -9.60862
1 -1.46899 2.12581 -9.52647
1 -0.980833 2.63602 -8.96923
1 -0.228713 2.23256 -9.38381
1 -0.597769 2.7815 -10.0127
1 0.299112 2.91757 -10.2099
1 0.632006 3.7481 -10.5468
1 -7.60223 -5.92813 8.16366
1 -8.49728 -5.58776 8.174
1 -8.94722 -5.89423 7.34803
1 -8.19136 -5.32259 7.19089
1 -8.81716 -4.8816 6.57398
1 -9.37357 -4.87586 7.3057
1 -8.702 -4.50219 7.86309
1 -9.39756 -3.93949 8.17336
1 -8.51979 -3.78815 8.60087
1 -8.26462 -3.11533 9.26265
1 1.76707 -5.14447 1.17556
1 2.03799 -4.44715 1.64466
1 2.27252 -3.64674 1.26004
1 2.23612 -2.8075 1.62882
1 2.09742 -2.16034 0.967734
1 2.27398 -2.4219 0.0558402
1 2.74635 -2.06591 -0.703274
1 3.20407 -2.81332 -0.319659
1 4.16783 -2.78914 -0.417571
1 3.78001 -3.05899 -1.271
1 -7.08628 -7.74852 -10.2241
1 -6.36165 -8.04681 10.4142
1 -5.9565 -8.95846 10.1139
1 -5.44295 -9.52056 -10.4973
1 -5.81618 -10.1991 -9.9912
1 -6.72741 -10.4505 -9.72013
1 -7.6071 10.419 -9.55925
1 -8.00377 9.44459 -9.5839
1 -8.44031 9.18076 -10.3687
1 -8.45743 9.00077 9.81731
1 2.06566 9.95524 -9.27163
1 1.72757 10.0187 -10.1608
1 1.36844 9.30047 10.4739
1 0.749604 8.57193 10.5565
1 0.132211 9.29391 -10.4013
1 -0.109918 10.1123 10.3521
1 0.689571 9.98917 9.95917
1 1.16804 9.3066 9.46754
1 1.01826 9.08988 8.5521
1 0.876655 8.25896 8.96197
1 7.42644 -5.95043 -4.65774
1 8.0576 -5.60977 -4.01702
1 7.23081 -5.2079 -3.71997
1 6.53315 -4.69478 -4.15111
1 5.64512 -4.80672 -4.04782
1 5.51898 -5.16478 -4.941
1 4.77337 -5.33012 -5.54783
1 4.55674 -5.15903 -4.62796
1 3.8423 -4.90564 -5.24803
1 3.2441 -4.31755 -4.80341
1 5.79601 9.2755 0.794423
1 5.5605 9.39977 -0.121606
1 5.75814 8.44258 -0.243186
1 6.52165 9.09453 -0.621266
1 6.6792 9.83909 -1.1616
1 7.36181 10.4728 -0.901562
1 8.21415 10.0359 -0.974702
1 8.36928 10.1554 -0.0895589
1 7.91287 -10.1581 0.0810629
1 8.43358 -10.0998 -0.769625
1 -0.337227 -9.66647 -4.03021
1 -1.11628 -9.15672 -3.93764
1 -1.27583 -8.25664 -3.70323
1 -0.680128 -8.25876 -4.44025
1 0.173163 -7.93315 -4.16439
1 0.303104 -7.63402 -5.03759
1 -0.135062 -8.38277 -5.41655
1 -0.339673 -9.28772 -5.20664
1 0.553926 -9.16124 -5.10793
1 1.16228 -8.45084 -4.84657
1 7.24361 -1.68813 -0.682936
1 7.4202 -1.29366 0.138313
1 8.39142 -1.24885 0.0794839
1 9.07021 -1.23041 0.76811
1 9.4425 -1.90887 0.146788
1 9.04543 -2.65023 -0.360937
1 8.63907 -3.55992 -0.166346
1 9.30473 -3.27537 0.44464
1 8.96092 -4.12841 0.718793
1 9.89111 -4.08806 0.931841
1 -2.4525 -6.39502 4.16011
1 -2.92215 -6.02484 3.40706
1 -2.38098 -5.40262 3.94497
1 -1.48583 -5.67572 4.16628
1 -1.28888 -6.57756 4.31362
1 -1.89341 -7.28364 4.471
1 -2.11376 -7.76604 5.23929
1 -1.48909 -7.15033 5.52851
1 -0.813922 -7.56075 4.96118
1 -0.319165 -7.74576 4.08861
1 -10.1138 -4.04034 2.23513
1 -9.45511 -3.44521 2.60531
1 -9.00452 -4.05485 3.12309
1 -8.5213 -4.84924 2.91679
1 -8.64881 -5.44624 3.69178
1 -8.25331 -5.0103 4.44303
1 -8.42164 -4.61859 5.27214
1 -9.27784 -4.59983 5.6899
1 -9.42783 -5.12134 4.88219
1 -9.11143 -4.45606 4.26798
1 7.88939 0.30642 -0.771431
1 7.4061 0.454688 -1.625
1 7.67959 -0.46689 -1.49623
1 8.43799 -0.61542 -0.77687
1 9.2168 -1.28606 -0.699457
1 9.4885 -2.0861 -1.2161
1 10.2081 -2.17493 -0.544443
1 10.1551 -2.59169 0.380597
1 10.3471 -2.9903 1.19572
1 10.4411 -3.24231 2.09479
1 3.77567 -4.07519 -2.97056
1 4.55975 -4.46625 -2.52846
1 5.02478 -4.35653 -3.35898
1 4.21866 -4.22274 -3.87544
1 4.70916 -3.52214 -4.2438
1 4.31935 -3.94387 -5.10522
1 5.20844 -3.57822 -5.16218
1 5.93103 -4.08565 -4.81711
1 5.87544 -3.85926 -3.8907
1 6.48443 -3.54115 -3.23794
1 -2.57572 7.03459 5.28881
1 -2.47652 7.73154 4.64995
1 -1.92649 7.02722 4.30728
1 -1.26247 7.70068 4.40611
1 -0.655527 8.08555 3.72848
1 -0.169097 8.73641 3.23714
1 -1.01108 9.15936 2.90124
1 -1.00281 9.79052 3.61865
1 -0.126286 9.8115 3.94823
1 0.6405 10.3111 3.73985
1 -5.8857 -10.0527 -6.06971
1 -5.17286 -10.4102 -6.51615
1 -4.75524 -10.3657 -7.32933
1 -5.0759 -9.50238 -7.58178
1 -5.87905 -10.1453 -7.48393
1 -6.17481 -9.54268 -8.12897
1 -6.70299 -9.88833 -8.8875
1 -6.01526 -10.5028 -8.7445
1 -6.79038 10.2799 -8.27696
1 -7.68976 10.08 -8.61534
1 7.26647 -3.75956 -5.66288
1 7.38446 -4.58445 -5.12484
1 6.52339 -4.46287 -5.5953
1 7.29642 -4.67633 -6.164
1 6.61203 -4.5839 -6.83718
1 6.88743 -4.80191 -7.69642
1 6.23744 -4.2503 -8.01076
1 5.56932 -4.05716 -8.71148
1 6.4563 -3.76568 -8.90745
1 7.05362 -3.11249 -9.21255
1 9.15854 6.13459 -9.09641
1 8.59344 6.74065 -9.66267
1 8.45134 5.87835 -9.96806
1 9.24354 5.44204 -9.83501
1 9.10542 5.77119 10.4187
1 8.80138 5 9.99413
1 9.57492 4.73452 10.413
1 9.424 4.27346 9.51385
1 8.93677 3.65241 10.047
1 8.59123 3.01903 9.31578
1 10.4053 1.85514 4.70524
1 9.74475 2.39023 5.18937
1 9.35461 1.51846 5.36404
1 8.84056 0.798783 5.46813
1 9.08851 0.252461 6.2461
1 8.18359 -0.119285 6.32453
1 8.63851 -0.89564 6.79866
1 8.211 -1.36364 7.55239
1 7.78223 -2.09559 7.13809
1 8.63744 -1.98575 6.67464
1 4.8267 -6.40849 -3.03435
1 4.71121 -5.5112 -2.76579
1 3.89466 -5.24461 -3.19171
1 3.71123 -5.13432 -2.24048
1 4.48363 -5.00115 -1.62901
1 3.65649 -5.07973 -1.1183
1 3.92171 -5.97772 -0.88811
1 4.08466 -6.44726 -0.0964524
1 4.06563 -7.29284 0.34706
1 3.47604 -7.8959 -0.159451
1 -0.469779 7.90684 -8.82375
1 -1.22809 7.39735 -9.1483
1 -0.715817 7.21614 -9.94998
1 -0.940349 7.9569 10.5581
1 -0.958468 7.4092 9.81016
1 -1.29388 6.57299 9.61985
1 -0.52483 6.81435 9.01493
1 -0.0682448 7.74932 8.98946
1 0.0487423 8.1083 9.84477
1 0.237 9.00451 9.64632
1 -8.96796 -1.96127 -5.80784
1 -9.85959 -1.77677 -6.00337
1 -10.1178 -0.931017 -6.43199
1 -10.0957 -0.794724 -5.47534
1 10.3592 -0.797328 -4.76206
1 -10.1458 -1.53729 -4.38303
1 -10.4238 -2.14145 -3.70852
1 10.2725 -1.40506 -3.35002
1 -10.1578 -0.784543 -3.55503
1 -10.5198 -0.0506249 -4.12071
1 10.3412 -0.93309 -8.41361
1 -10.2754 -1.77584 -8.28193
1 10.2479 -1.63304 -7.51675
1 9.51472 -1.06203 -7.62805
1 8.81252 -0.504239 -7.25452
1 9.27084 -1.13146 -6.5616
1 9.7352 -1.87467 -6.39011
1 9.99882 -2.68748 -5.96816
1 9.64382 -2.6173 -5.038
1 9.26685 -3.43447 -4.62783
1 3.02333 -10.3451 -9.5927
1 2.65286 -10.1972 -8.72034
1 2.91953 10.0527 -8.44775
1 3.65334 -10.5477 -8.27082
1 3.26605 10.3112 -7.43055
1 2.53693 10.3441 -6.7801
1 1.95102 9.73295 -6.31226
1 2.77566 9.34499 -6.61223
1 2.79218 8.41164 -6.97618
1 3.35028 7.75986 -6.63326
1 1.15119 -1.00611 -6.33167
1 0.219722 -0.914639 -6.53484
1 -0.396156 -1.32897 -5.86814
1 0.409103 -0.920337 -5.52121
1 0.720272 -0.0741125 -5.87796
1 -0.0978165 0.342376 -6.20521
1 0.353573 -0.058173 -6.9442
1 0.401792 0.957006 -7.07211
1 0.471191 1.22435 -7.95162
1 0.0442051 2.01241 -8.36091
1 -2.84235 -5.77213 -1.6917
1 -1.92698 -5.65418 -1.48095
1 -1.39993 -6.45629 -1.26801
1 -2.23178 -6.75041 -1.77371
1 -2.07331 -7.75414 -1.80861
1 -2.98112 -7.69311 -1.60864
1 -3.36611 -7.0065 -2.1494
1 -2.85638 -7.39247 -2.86059
1 -2.39129 -7.95276 -3.49618
1 -1.75274 -7.93383 -2.86375
1 -8.53888 3.00543 -4.6717
1 -7.78511 2.97009 -5.26856
1 -8.52353 2.7489 -5.8152
1 -8.28941 2.11004 -5.13947
1 -9.0562 1.61005 -5.51075
1 -9.4693 0.77887 -5.70156
1 -9.56716 0.0749231 -6.33692
1 -10.1773 0.423738 -6.9486
1 10.1596 0.878038 -6.87639
1 10.1255 1.64374 -6.25309
1 -4.99385 -9.95053 -8.66494
1 -5.12385 -10.5511 -9.38752
1 -5.16052 9.67293 -9.74166
1 -5.18715 9.61994 10.4517
1 -5.34827 10.5242 10.145
1 -4.87932 10.0587 9.46279
1 -5.52007 10.4064 8.82094
1 -6.52171 10.1935 9.13488
1 -7.22423 -10.3161 9.02952
1 -6.68572 -10.4905 8.20468
1 6.5594 3.19198 3.16114
1 6.22181 2.23928 3.18408
1 6.5187 1.27034 3.24842
1 6.59457 0.481818 3.70412
1 5.84083 0.931837 4.14989
1 5.96123 1.90061 4.29856
1 6.14679 1.69257 5.18974
1 7.00471 1.81328 4.71647
1 6.94412 2.37386 3.98148
1 6.61245 2.85495 4.66917
1 1.82099 -4.89706 -2.89687
1 1.04934 -4.65007 -2.30864
1 1.19666 -5.06857 -1.4831
1 1.59084 -5.72574 -0.819276
1 1.08439 -6.29438 -1.41133
1 0.899402 -7.33721 -1.42199
1 1.2535 -7.35432 -2.36339
1 0.827689 -7.47558 -3.19003
1 0.340262 -6.94234 -3.76908
1 0.738503 -6.38356 -3.12565
1 3.28966 -5.22899 -8.26949
1 3.19089 -6.17292 -8.57739
1 3.52479 -7.07835 -8.44417
1 4.11173 -6.55276 -7.82398
1 4.92801 -6.84759 -8.27442
1 5.00758 -7.42376 -7.48271
1 4.79885 -7.44636 -6.6299
1 5.09942 -8.13715 -6.00306
1 4.67897 -8.64467 -5.32278
1 5.52453 -8.28397 -5.03864
1 6.06196 -8.20451 2.32409
1 6.3468 -7.68413 1.59864
1 5.5348 -7.24478 1.88224
1 6.32244 -6.752 2.21554
1 5.71069 -6.1946 1.77717
1 6.50605 -5.70014 1.69514
1 6.18857 -6.01848 0.856515
1 6.41088 -5.40352 0.117133
1 7.19631 -5.82692 0.587739
1 6.89671 -6.62492 1.09686
1 -7.69275 -4.08426 9.2924
1 -7.13244 -3.85087 10.0383
1 -7.60473 -3.60518 -10.3081
1 -6.93428 -2.89117 -10.4988
1 -7.7015 -2.52951 -10.0837
1 -8.51251 -2.23195 -10.497
1 -8.48897 -3.20598 10.5402
1 -8.79762 -4.11457 10.4333
1 -7.9937 -4.61283 10.2595
1 -8.07924 -4.9782 -10.0528
1 -4.05024 -1.41208 6.10855
1 -3.80983 -2.2549 6.55212
1 -3.2492 -2.20389 7.35559
1 -2.50768 -1.57202 7.52011
1 -2.13821 -2.52826 7.45658
1 -1.50289 -1.93311 7.85129
1 -0.900984 -2.16119 7.10412
1 -0.174031 -1.54852 7.21926
1 0.185646 -0.908413 6.61534
1 -0.495455 -0.353029 6.20579
1 10.4276 4.36265 5.04811
1 -9.93771 4.41421 5.65501
1 -9.53382 4.89793 4.92172
1 -9.75799 5.56843 4.29257
1 -9.78938 6.16119 3.57175
1 -10.441 6.7152 3.02649
1 9.9329 6.35999 3.45348
1 8.98796 6.60867 3.42956
1 8.61919 7.54305 3.68453
1 8.26402 8.09977 4.37492
1 9.81101 -8.7866 4.56292
1 10.2769 -9.45772 5.10895
1 9.98303 -9.76092 5.91776
1 10.1184 -9.91446 6.80822
1 10.2683 -9.04426 6.59047
1 9.70121 -8.67111 5.72561
1 8.77209 -8.76779 5.54945
1 8.799 -8.50542 6.49637
1 8.84263 -8.08944 7.34338
1 8.84982 -8.76866 8.09658
1 2.59958 3.23916 0.86528
1 3.41599 3.26037 0.358202
1 3.97983 2.62858 -0.0546775
1 4.16726 2.44372 -0.944689
1 4.94667 2.25656 -0.449538
1 4.64051 1.95396 0.411149
1 4.87067 1.10608 0.189956
1 4.56154 0.296392 -0.188469
1 5.25371 -0.129774 0.31937
1 5.68928 0.0688539 1.20423
1 9.50761 6.12536 -1.91948
1 10.3595 5.70906 -2.09099
1 10.2645 5.38415 -1.20291
1 -10.2658 4.76725 -0.887273
1 -10.2005 4.43358 -1.77256
1 10.0157 4.44781 -1.773
1 10.1453 3.74932 -2.39732
1 9.60408 3.44948 -3.09106
1 -10.5514 3.15372 -3.28436
1 -10.3359 4.1078 -3.22973
1 -4.42263 7.652 -4.22081
1 -4.0279 7.29221 -5.09764
1 -3.31186 7.87096 -4.82743
1 -2.90643 8.08357 -4.02678
1 -2.53234 8.25396 -3.17024
1 -1.76786 7.87146 -2.8284
1 -2.4005 7.79011 -2.12927
1 -1.88347 8.63496 -1.87895
1 -1.57225 9.45109 -2.22889
1 -2.35777 9.37567 -2.75929
1 0.287681 3.51836 3.44272
1 0.111785 2.60601 3.67296
1 0.0672234 3.24434 4.42217
1 0.994961 3.05608 4.41957
1 0.611988 2.4753 5.12884
1 -0.099462 1.95994 5.63123
1 -0.772269 2.61323 5.82122
1 -1.23657 2.39327 6.613
1 -0.712672 1.53426 6.7252
1 -0.607969 0.767326 7.26753
1 4.78349 5.64613 4.56673
1 4.79514 4.74294 4.34368
1 5.75029 4.72646 4.66228
1 6.26821 5.54945 4.74954
1 6.40464 5.62469 5.70638
1 6.35631 6.48824 5.3111
1 5.91183 7.35032 5.20102
1 5.02544 7.44127 5.53862
1 5.39335 8.20524 5.91495
1 6.1894 8.6652 6.09995
1 -1.88824 4.56058 -0.110088
1 -1.12689 5.05466 -0.0513248
1 -1.64831 5.62698 -0.591041
1 -2.19441 4.90605 -0.958871
1 -1.85638 4.62955 -1.80688
1 -0.969028 4.9917 -1.45263
1 -0.431937 4.6997 -0.683429
1 -0.231922 5.52153 -0.295469
1 -0.800779 5.88128 0.394717
1 -0.706317 6.81483 0.79825
1 5.59486 -0.381778 -3.47651
1 5.95135 0.561135 -3.42605
1 6.15201 0.0214952 -2.64911
1 5.3924 -0.139076 -2.03541
1 5.51587 -1.05248 -2.261
1 5.19859 -1.84065 -2.69858
1 4.92875 -1.47398 -3.52168
1 5.12838 -0.842698 -4.23224
1 4.98754 -1.40728 -4.91514
1 5.55931 -1.17357 -5.64064
1 2.4864 -6.81358 -1.25391
1 2.10168 -7.58454 -1.71305
1 2.01326 -8.41614 -2.25211
1 2.34126 -9.24981 -2.45535
1 2.88023 -10.0457 -2.29587
1 3.48929 -9.3091 -2.14074
1 3.32326 -8.8776 -1.35169
1 2.94323 -8.87754 -0.494019
1 3.77405 -9.06886 -0.0970703
1 3.59873 -8.54617 0.661564
1 10.2475 -6.42277 8.4963
1 9.49026 -6.95302 8.61641
1 9.49599 -7.82613 9.08008
1 10.3669 -7.62063 8.76418
1 -10.0085 -8.21811 8.61799
1 -10.0897 -8.83181 9.3441
1 -10.0064 -9.81553 9.4372
1 -10.451 -10.344 8.78296
1 -9.92939 10.2183 9.29424
1 -9.31386 -10.3268 8.93255
1 -3.61509 5.281 7.61714
1 -3.49081 5.28159 8.58306
1 -3.40174 4.41241 8.18359
1 -2.9858 4.49941 7.27875
1 -2.96702 5.39569 6.87059
1 -3.27107 6.26884 7.05065
1 -3.04571 6.29633 7.94885
1 -3.7484 6.98868 8.07874
1 -3.78547 7.63121 8.82019
1 -3.23134 8.11123 9.49171
1 -2.81804 8.14085 -1.2246
1 -3.38538 7.4383 -1.50204
1 -3.10576 7.16154 -2.41824
1 -3.67793 7.95557 -2.54917
1 -3.16177 8.74562 -2.43954
1 -3.64295 9.54949 -2.10093
1 -3.69864 10.4456 -1.82397
1 -4.37323 -10.0054 -1.70436
1 -4.08314 -9.626 -0.80561
1 -4.51884 -10.4788 -0.517836
1 -5.41183 -3.41586 -7.40455
1 -5.47126 -4.26209 -7.77112
1 -5.89365 -4.00444 -8.5708
1 -6.26465 -3.52846 -7.83986
1 -6.54075 -4.40703 -7.47619
1 -6.83451 -5.28999 -7.59336
1 -6.89561 -5.32749 -6.62355
1 -7.00766 -6.02167 -6.03749
1 -7.20552 -5.29961 -5.51153
1 -6.43343 -5.004 -5.06072
1 4.99837 -7.75236 10.0142
1 4.57917 -7.963 -10.3208
1 5.5692 -8.01093 -10.3895
1 5.49664 -8.97107 -10.517
1 4.79412 -9.68726 -10.437
1 5.43808 -9.58349 -9.7456
1 4.89224 -9.44142 -8.98451
1 4.24068 -8.98042 -8.42876
1 3.83025 -8.08401 -8.05387
1 4.52192 -8.37308 -7.51344
1 -0.00555046 0.554426 9.05993
1 -0.672112 1.02434 9.53601
1 -0.141296 0.544634 10.1935
1 0.378081 1.15599 -10.4336
1 0.994856 0.459883 10.4486
1 1.46242 0.00459308 9.74509
1 1.25233 -0.89258 9.31024
1 0.677931 -0.300711 8.85378
1 1.56379 0.0396227 8.72862
1 1.74857 0.462105 7.90503
1 -0.869078 -2.75585 6.10709
1 -1.67727 -2.28706 6.04834
1 -1.81128 -1.65468 6.7394
1 -0.958678 -1.34269 6.41509
1 -1.09596 -1.06643 7.31149
1 -0.442295 -0.362072 7.19871
1 -0.09348 0.0272066 8.03386
1 0.741191 0.36085 7.79505
1 0.411006 1.17302 7.98324
1 1.35211 1.4604 7.87702
1 -10.0221 0.648946 4.69609
1 -10.3184 1.18521 3.91264
1 10.1888 1.08741 3.24632
1 -10.0915 1.46867 2.91298
1 -9.80806 2.08252 2.18379
1 -10.2357 2.82323 1.83355
1 10.4239 2.17622 1.19667
1 -10.4355 2.91574 0.663053
1 9.99547 3.18141 1.29273
1 9.81498 3.91828 0.724883
1 -6.95431 -9.59855 -4.06888
1 -7.66448 -10.0375 -4.64102
1 -8.60128 -9.88916 -4.58362
1 -8.29352 -9.74531 -3.73214
1 -8.75246 -8.97971 -3.9155
1 -7.98379 -9.04615 -4.4725
1 -8.73215 -8.4905 -4.86963
1 -8.8287 -9.06487 -5.65524
1 -9.15701 -8.16937 -5.66713
1 -8.87647 -7.467 -5.09342
1 3.02659 8.16659 8.06023
1 3.48232 8.94251 8.46295
1 2.80532 8.81895 9.10295
1 3.68866 8.8075 9.54029
1 3.6023 7.90982 9.07372
1 2.77278 7.57273 8.89819
1 3.36608 6.85493 8.81432
1 3.88468 6.47501 8.12734
1 3.39585 5.59493 8.26183
1 4.27912 5.71415 8.61255
1 1.97552 10.3487 -7.75265
1 2.55309 9.57755 -7.68503
1 1.78168 9.42212 -8.23984
1 2.61218 9.012 -8.66646
1 3.60764 8.97049 -8.87551
1 3.10782 9.44364 -9.55142
1 2.83168 9.87375 -10.3802
1 3.73699 9.56116 -10.5427
1 3.90413 10.2372 -9.85087
1 4.49934 -10.2901 -9.2896
1 7.29927 8.00459 -3.56042