8000
Atoms. Timestep: 10000000
1 -7.7035 -4.49723 -6.42208
1 -7.95352 -3.76571 -5.946
1 -8.76092 -3.85863 -5.27463
1 -8.51487 -2.96382 -5.33357
1 -8.24451 -2.00974 -5.13352
1 -7.6944 -1.30148 -5.39243
1 -6.80969 -0.933627 -5.47376
1 -6.74888 -0.0450143 -5.83824
1 -7.59355 -0.329539 -6.23446
1 -7.18738 -0.131014 -7.04436
1 -7.25335 5.25839 -7.17403
1 -6.73717 5.92897 -6.74205
1 -5.93841 5.50969 -6.93859
1 -6.35538 4.71405 -6.94952
1 -6.44199 4.07217 -7.61534
1 -6.5485 3.45565 -8.29881
1 -5.96492 3.14415 -7.66213
1 -5.57555 3.79036 -8.34618
1 -5.84659 2.93524 -8.92241
1 -6.55059 2.32973 -9.2019
1 -1.50651 8.52708 7.36797
1 -2.01136 9.22436 7.00255
1 -1.73483 8.8019 6.14321
1 -2.00558 8.02667 5.61427
1 -2.51404 7.5633 4.95225
1 -3.41079 7.55679 4.65475
1 -4.1835 7.25242 5.04534
1 -4.62259 6.9609 5.90374
1 -4.47788 6.07357 5.53428
1 -5.40558 6.23153 5.54416
1 -0.357349 -1.84599 -4.78713
1 -0.46211 -2.82159 -4.45994
1 -1.26561 -3.25241 -4.3658
1 -0.996386 -3.5784 -5.24131
1 -0.439863 -3.20744 -5.97989
1 -1.21773 -2.62186 -6.36917
1 -0.981561 -2.35558 -5.4865
1 -1.01046 -1.45502 -5.79083
1 -0.0499576 -1.29209 -5.78687
1 0.84028 -1.46321 -6.19037
1 -9.56332 0.618296 -0.0190296
1 -10.0814 1.32167 0.494452
1 -10.0487 2.22027 0.0431027
1 -10.4084 3.08755 0.244329
1 10.2214 2.49211 0.293466
1 9.91259 2.19118 1.17687
1 9.5088 1.73947 0.386437
1 10.1313 1.10148 0.0563123
1 9.67215 0.189381 -0.00663392
1 8.92794 -0.374446 0.322977
1 -4.67076 8.74693 9.08166
1 -4.11993 8.2158 8.40977
1 -4.87955 7.84126 7.98374
1 -4.88779 7.16909 8.68663
1 -3.98226 7.09834 8.7725
1 -3.52887 7.39672 7.99763
1 -4.24557 7.55143 7.25556
1 -3.57821 8.23981 7.40458
1 -4.42693 8.60602 7.33772
1 -4.84954 8.15492 6.60115
1 -10.1281 2.86314 7.17933
1 -10.3801 3.6245 7.5986
1 10.0385 3.40954 7.42294
1 9.9632 4.04714 8.11054
1 9.03612 3.73771 8.22754
1 8.67491 3.23295 7.44571
1 8.40689 2.31548 7.15782
1 8.74001 2.67023 6.30107
1 9.43445 3.31378 6.55802
1 10.2862 3.0075 6.25382
1 -1.01028 -2.70207 5.87464
1 -1.40688 -3.51663 5.4388
1 -1.43355 -4.31516 6.06547
1 -1.79477 -4.82666 5.37569
1 -1.28437 -4.30344 4.7632
1 -2.13426 -3.8745 4.39272
1 -1.89509 -2.88495 4.30642
1 -2.13037 -1.92481 4.58139
1 -2.25444 -1.51977 3.67825
1 -2.68391 -1.78294 2.85231
1 -1.66663 -6.32272 -1.434
1 -0.724253 -5.97758 -1.34802
1 -1.11535 -6.44473 -0.581579
1 -0.881372 -7.27085 -0.221278
1 -0.596718 -7.40463 -1.1713
1 0.167049 -7.55898 -0.604506
1 0.486863 -6.73293 -0.286686
1 0.937389 -6.40395 0.460809
1 0.789435 -5.66992 1.20012
1 0.474473 -5.33878 2.01635
1 0.61136 -10.6349 -9.88002
1 1.2522 -10.6482 -10.5732
1 0.982723 9.80036 10.3514
1 1.53406 9.0957 -10.5207
1 1.43804 9.75357 -9.82634
1 0.597812 9.22814 -10.0756
1 0.412129 9.71836 -9.27004
1 -0.362847 9.10235 -9.43527
1 -0.85765 8.31769 -9.25122
1 -1.39611 8.8494 -9.80771
1 -4.46343 5.54422 1.19205
1 -4.29484 4.85243 1.85831
1 -3.40937 5.15062 1.79308
1 -3.42601 4.54577 2.61075
1 -4.33495 4.39724 2.93514
1 -3.74009 4.48844 3.67308
1 -4.33837 3.60011 3.76872
1 -4.03678 2.71606 3.84578
1 -4.32768 2.88711 2.94093
1 -4.42518 1.98817 3.08691
1 -5.69641 7.11373 0.909044
1 -5.67512 8.06037 0.853488
1 -5.83009 8.06982 -0.0948822
1 -6.22645 8.85556 0.204003
1 -6.43696 9.81555 0.14118
1 -7.10242 10.3998 -0.13817
1 -6.92748 10.4541 0.776511
1 -6.08607 10.6352 0.560976
1 -5.33369 -10.2929 1.03043
1 -4.98158 -9.41858 1.24718
1 3.65742 2.81907 1.54784
1 4.62804 2.75544 1.4553
1 5.32536 2.43924 2.05653
1 5.75313 2.45945 1.13959
1 6.63038 2.86238 0.828344
1 6.46797 3.77662 0.884681
1 6.2492 3.44814 1.78614
1 6.60796 3.75299 2.65099
1 6.26489 3.0781 3.21613
1 6.22172 3.89916 3.67603
1 2.83306 -4.87377 3.39681
1 3.1086 -5.76859 3.69172
1 2.86284 -5.81329 4.58315
1 3.79451 -5.75594 4.48652
1 4.48294 -6.45025 4.35511
1 4.76104 -5.5608 4.14551
1 5.08072 -4.91453 3.57385
1 4.22019 -4.38191 3.60481
1 3.97219 -5.31319 3.54674
1 4.10295 -6.22284 3.45071
1 7.35375 -0.791007 -2.69721
1 6.98579 -1.22851 -3.50313
1 6.70127 -2.07677 -3.67258
1 7.44367 -2.5835 -3.94766
1 8.33666 -2.39415 -3.66864
1 9.19896 -2.6533 -3.23401
1 9.74701 -2.94719 -2.53228
1 9.7299 -3.86245 -2.84226
1 -10.5975 -4.05655 -2.7433
1 -10.0606 -4.21647 -3.53662
1 -4.22304 -6.65879 9.47652
1 -3.89271 -6.04361 10.1177
1 -4.12374 -5.28523 10.5752
1 -4.12987 -5.96834 -10.0966
1 -3.94856 -6.82687 -10.4913
1 -3.96394 -7.70485 10.4219
1 -4.85528 -7.82339 10.4688
1 -4.73444 -6.94821 10.3031
1 -5.1903 -6.60217 -10.2021
1 -4.97622 -5.80983 -10.6459
1 -1.43564 6.29866 -5.08127
1 -0.964112 5.74874 -4.28552
1 -0.513788 5.4981 -3.49197
1 -0.218778 4.63643 -3.33805
1 -0.20536 3.6899 -3.63854
1 -0.517427 3.737 -4.54963
1 0.32936 4.08665 -4.80558
1 0.309943 4.93529 -5.23841
1 -0.0881786 5.24956 -4.41899
1 -0.714792 5.05146 -5.16828
1 0.846494 9.44615 6.05222
1 1.60127 8.81264 6.0234
1 2.56696 9.0833 6.10102
1 3.27077 9.16426 5.48173
1 3.65452 8.71182 6.20794
1 4.1369 8.21302 5.56813
1 3.22498 8.15761 5.15052
1 2.34436 8.24546 5.54001
1 2.09501 7.34044 5.12591
1 1.32806 7.18648 4.5953
1 6.19702 1.55939 7.95532
1 6.07007 1.4944 7.03096
1 6.07534 1.22577 6.13466
1 6.4755 0.748377 5.40546
1 5.48198 0.629497 5.54581
1 4.54304 0.810691 5.54339
1 5.08608 1.62751 5.79548
1 4.68787 1.69974 4.95587
1 4.20005 2.21475 5.58422
1 3.77565 2.66369 6.29057
1 5.23782 -7.81067 2.30243
1 5.3506 -8.77549 2.36149
1 4.44911 -9.01479 2.65841
1 3.669 -9.10024 3.25341
1 4.26885 -9.7374 3.56239
1 4.21848 -9.11099 4.2663
1 3.87715 -8.28632 4.30523
1 3.39476 -8.20254 5.16832
1 3.57554 -9.01934 5.58139
1 3.51435 -9.77898 6.19966
1 -1.74046 -0.125002 7.55135
1 -2.66174 -0.309954 7.65268
1 -3.12214 -0.550781 8.48674
1 -3.42811 -0.940325 9.26328
1 -4.33111 -0.669139 9.43513
1 -4.58821 -1.05064 10.3307
1 -5.13851 -0.336241 10.1438
1 -5.75668 0.453048 10.1631
1 -5.23679 0.509935 -10.2541
1 -4.32812 0.243636 -10.4509
1 3.25235 6.74733 -8.77919
1 4.01416 7.34962 -8.82842
1 4.91005 7.07043 -8.89313
1 5.34962 6.54592 -9.58971
1 5.9543 6.50197 -8.90074
1 5.89024 6.91453 -8.06944
1 5.39295 7.14023 -7.31391
1 5.35628 8.1287 -7.39911
1 6.101 8.12873 -8.00735
1 5.81674 9.03129 -7.93943
1 -10.5187 3.33034 -10.5023
1 9.9622 3.46507 10.1786
1 9.54403 3.70919 9.41963
1 9.35893 2.84581 9.1126
1 10.1801 2.51912 9.4892
1 -10.4114 2.03136 9.13506
1 -9.82146 2.45805 8.43747
1 -9.88263 3.47613 8.56703
1 -8.98415 3.75993 8.8544
1 -8.09422 3.86206 8.51006
1 -2.67505 4.66129 10.1578
1 -2.2468 5.43068 9.701
1 -1.63704 5.41769 10.4878
1 -2.55669 5.81324 -10.5402
1 -2.55352 6.60501 10.2381
1 -2.13329 7.23949 9.62775
1 -3.04978 7.244 9.33085
1 -3.39611 6.38267 9.54244
1 -3.03314 6.47234 8.66309
1 -2.5479 6.77096 7.90027
1 -0.607723 5.72016 5.78669
1 -1.26257 6.39494 5.81693
1 -0.80576 6.41604 4.98147
1 -1.10909 7.18446 4.38269
1 -1.29792 7.39991 5.30963
1 -0.578462 7.36298 5.98925
1 -1.15101 7.874 6.53381
1 -0.752098 8.72117 6.69511
1 -0.64666 9.42404 7.43729
1 -1.27964 9.35364 8.17087
1 9.64617 7.49925 -3.0555
1 10.5097 7.78837 -2.82315
1 10.0482 8.30752 -2.19095
1 10.647 8.79649 -2.79673
1 9.82997 9.24655 -2.76666
1 10.2643 9.52115 -1.80878
1 -10.2798 9.66322 -1.11374
1 -10.0948 10.3491 -0.480874
1 -9.1392 10.2139 -0.598165
1 -8.3653 -10.5612 -0.45685
1 6.99146 0.550145 9.63084
1 6.33977 0.176131 9.0881
1 5.79798 0.660383 8.47328
1 5.07583 0.435435 7.90734
1 4.27214 0.0165584 7.60083
1 3.87774 -0.351836 6.84264
1 4.17768 -1.0641 7.44353
1 3.40343 -1.25147 6.82325
1 2.77469 -0.971687 6.11309
1 1.91391 -1.3039 6.23034
1 -10.2006 9.9164 3.52747
1 -10.0149 10.5285 2.87109
1 -9.06958 10.3703 3.14229
1 -8.5051 9.6193 3.15461
1 -8.51435 9.91435 4.0942
1 -9.25457 10.4478 4.42537
1 -9.89856 -10.1898 4.0502
1 10.4554 -10.0946 3.90663
1 10.6438 -10.3396 4.82227
1 10.1632 10.4348 5.45215
1 -1.79239 4.68283 0.516797
1 -1.39491 5.53545 0.482908
1 -1.78022 6.01958 -0.284285
1 -2.34864 6.04021 -0.98994
1 -2.46768 7.03511 -0.954286
1 -1.69528 6.68826 -1.42716
1 -0.951613 7.3492 -1.22634
1 0.0431131 7.55654 -1.16992
1 -0.175679 7.66956 -2.08753
1 -0.607741 8.51414 -2.0454
1 -9.65203 4.68173 10.143
1 -10.3959 4.18128 10.0287
1 -10.4348 3.30275 9.60502
1 -9.475 3.4141 9.73577
1 -9.37735 3.45544 -10.6174
1 -8.86574 2.81412 10.204
1 -7.99962 2.43465 10.3142
1 -7.92021 1.98142 9.49712
1 -8.70638 1.73882 9.94987
1 -9.60049 1.92586 9.84253
1 7.64247 1.95159 -3.53445
1 7.39978 1.34146 -4.28102
1 8.2005 1.90293 -4.39866
1 8.65938 1.80741 -3.58143
1 9.21316 2.44845 -4.01062
1 9.88897 1.93622 -4.43406
1 10.5532 1.686 -5.11996
1 10.101 0.90561 -4.87279
1 -10.5133 0.778122 -5.51257
1 -10.0062 0.942428 -4.72974
1 -9.93974 -8.9449 -3.7125
1 -10.3747 -9.6439 -4.13447
1 10.3553 -9.58209 -3.39178
1 9.76736 -9.12039 -2.74016
1 9.64035 -8.2645 -2.42021
1 10.2439 -8.36687 -1.68297
1 10.4627 -8.14433 -0.701488
1 10.5019 -7.24257 -0.92956
1 9.7964 -7.38703 -1.46976
1 8.97248 -7.87629 -1.39151
1 1.98962 5.14 8.85307
1 1.32866 5.47763 8.22274
1 1.13885 4.55879 8.31932
1 0.616656 4.76212 9.21626
1 0.277503 5.43373 8.64149
1 -0.593883 5.61273 8.69662
1 -0.539116 4.63533 8.56216
1 -0.69816 3.71327 8.91483
1 -1.40212 3.6569 9.47707
1 -1.39415 4.50867 9.86147
1 5.11826 -9.51277 -10.3574
1 5.54243 -9.00242 10.2317
1 6.10083 -9.09231 9.43274
1 7.04817 -8.92451 9.49176
1 6.75576 -9.88692 9.42315
1 6.96736 -10.621 8.82848
1 7.0701 9.77389 8.67588
1 6.16175 9.9269 9.01851
1 5.42266 10.5132 9.40131
1 5.84205 -10.0071 8.98508
1 10.3861 4.29609 -2.86659
1 -10.0856 4.64374 -2.71179
1 -10.0974 3.71877 -2.51123
1 -9.64884 3.26105 -1.79176
1 -8.95335 2.60953 -1.7998
1 -8.46532 2.35187 -2.67894
1 -8.94419 3.21385 -2.65365
1 -9.5111 3.19503 -3.4458
1 -10.4312 3.47319 -3.37474
1 -10.2501 2.57561 -2.99581
1 4.37995 0.475599 3.86661
1 4.76405 -0.365146 3.46643
1 4.58499 -1.36171 3.58544
1 3.70695 -1.41252 4.06138
1 2.85013 -1.77802 4.04195
1 2.59958 -0.887568 4.29507
1 2.96118 -0.435154 5.10083
1 3.30157 -1.3039 5.30588
1 4.05311 -0.683117 5.61289
1 3.66323 0.16689 5.63497
1 -7.98324 -1.44298 -8.1602
1 -7.84685 -1.26763 -9.07764
1 -7.20155 -0.5703 -9.12734
1 -7.24576 -0.505746 -8.21248
1 -8.01805 -0.0485428 -7.86785
1 -8.25946 0.873515 -7.9087
1 -8.97124 1.28503 -8.38685
1 -8.96829 2.15532 -8.03003
1 -9.00682 2.91973 -8.60207
1 -8.98845 3.90598 -8.53783
1 -1.79237 -0.0189305 2.97342
1 -1.83118 -0.990726 2.8433
1 -0.854118 -0.79588 2.65801
1 -0.673723 -1.45302 3.33493
1 -0.548266 -2.37034 3.37442
1 -1.44776 -2.35658 3.43762
1 -2.34967 -2.61635 3.46637
1 -2.79823 -3.31705 3.84287
1 -3.60637 -2.81246 3.72185
1 -3.19156 -2.2352 4.39316
1 -5.1191 -7.05776 8.3534
1 -5.01368 -6.14567 7.98717
1 -5.75882 -5.61995 8.33404
1 -6.7131 -5.80411 8.2681
1 -7.36187 -5.30536 8.72196
1 -8.04087 -4.57199 8.84638
1 -7.61257 -3.9043 8.21401
1 -8.39526 -3.98579 7.60286
1 -8.77328 -3.61742 8.37344
1 -8.99617 -3.44539 9.27585
1 1.52143 3.28954 -0.271655
1 0.684841 2.6912 -0.211667
1 0.454973 3.62954 0.00323379
1 -0.115424 4.15562 -0.623794
1 0.507558 4.63062 -0.133396
1 0.780341 4.96418 -0.980264
1 0.305595 5.53832 -1.5687
1 -0.436662 5.31553 -1.07888
1 -0.550281 5.79774 -0.28811
1 -0.364281 6.45918 -0.970708
1 1.72685 -1.10412 -8.34341
1 1.46112 -1.69996 -7.58158
1 1.11323 -0.904512 -7.23725
1 1.94784 -0.437285 -7.58067
1 1.38756 0.174019 -8.02942
1 2.31318 0.420875 -8.12616
1 1.9783 -0.00943626 -8.95586
1 2.9387 -0.0139579 -8.91398
1 3.45537 -0.208737 -9.65908
1 4.31091 -0.0383782 -10.105
1 -8.52216 0.239285 0.329007
1 -8.72311 -0.157752 1.24299
1 -8.31686 0.742648 1.25757
1 -9.12969 1.07301 0.835711
1 -9.67007 1.48638 1.55416
1 -8.8203 1.60883 1.87584
1 -7.92109 1.88652 2.14696
1 -7.99039 2.76019 2.42646
1 -7.913 2.71328 1.47145
1 -7.32166 3.19164 0.785423
1 -10.3218 -7.66416 -3.85385
1 10.3991 -6.92324 -3.8709
1 10.048 -7.19124 -2.97324
1 -10.5198 -6.90023 -2.36026
1 -10.4946 -7.76254 -2.69634
1 -10.4402 -8.6927 -2.80092
1 -10.5 -9.21055 -1.97676
1 9.9905 -9.40553 -1.59872
1 9.13463 -8.9917 -1.73395
1 9.1383 -9.63224 -1.06311
1 7.90537 -9.5086 -2.69305
1 8.89064 -9.65847 -2.45148
1 9.281 -9.84393 -3.31571
1 8.80997 -9.00008 -3.21416
1 8.06393 -8.41364 -3.21502
1 8.20916 -8.28077 -2.24931
1 7.2315 -8.612 -2.21053
1 6.75019 -8.99571 -2.921
1 6.13095 -8.85226 -2.1501
1 5.87529 -9.79089 -2.21794
1 1.07588 2.80549 6.4871
1 1.14928 2.14542 5.75339
1 1.7416 1.48868 5.9617
1 1.48579 0.548163 5.6404
1 2.29432 0.0111737 5.78807
1 2.67755 0.870881 6.06208
1 1.94684 0.65106 6.71197
1 1.32606 0.26954 7.35207
1 1.25801 -0.199526 6.51958
1 0.246939 -0.370962 6.62951
1 0.687731 -8.75005 3.09212
1 1.53201 -9.19881 3.24003
1 1.40918 -8.50466 3.83661
1 2.08278 -7.84974 3.78985
1 2.05297 -8.29189 2.94637
1 2.82887 -8.48063 3.48255
1 2.56016 -9.39228 3.75893
1 2.58525 -10.0194 3.09829
1 2.97731 10.6466 2.41123
1 3.48796 10.6449 1.61424
1 -9.72848 6.80992 6.9557
1 -10.4714 7.21339 7.37606
1 -10.1283 6.6824 8.10408
1 -9.92781 7.5677 8.44441
1 -9.53199 7.33727 9.29936
1 -10.2409 6.56353 9.34541
1 -9.8138 6.88531 10.1692
1 10.4742 6.9056 10.1271
1 10.0616 7.02101 9.21816
1 -10.5355 7.60226 9.48201
1 -8.47012 4.9574 0.624855
1 -8.61572 5.3618 1.5612
1 -8.1687 5.59874 2.37518
1 -8.29001 5.78279 3.31196
1 -7.55033 5.15241 3.44225
1 -6.90077 4.42434 3.40002
1 -6.88528 4.5164 4.35488
1 -6.11725 4.0522 4.02375
1 -5.98718 3.11436 4.43814
1 -5.23437 3.66286 4.48215
1 2.14566 -3.15412 -10.3894
1 1.73672 -3.95236 -10.0699
1 0.998519 -4.50438 -10.5144
1 1.2682 -3.80992 10.2184
1 1.12829 -4.43872 9.51778
1 1.17748 -5.29077 9.955
1 1.80779 -6.02003 10.1952
1 1.29426 -6.5781 -10.4902
1 1.11017 -7.50862 -10.1737
1 0.525464 -7.57006 -9.44123
1 0.735594 6.97528 -6.80837
1 1.15523 6.21842 -6.46245
1 1.42978 7.03553 -5.97882
1 1.67667 7.64293 -5.28566
1 1.09964 8.18547 -5.87764
1 2.02159 8.20986 -6.17299
1 2.42545 7.30578 -6.118
1 2.07971 7.18162 -6.99134
1 1.48815 7.7376 -7.48072
1 1.25887 8.40073 -6.86216
1 -5.00405 3.43788 -7.25932
1 -4.47728 3.11983 -6.53778
1 -4.47701 2.33568 -7.14245
1 -3.73727 2.96623 -7.1914
1 -3.96657 3.77184 -7.69662
1 -3.44115 4.4882 -7.29255
1 -2.89098 4.96473 -7.93935
1 -2.31183 5.02569 -8.75719
1 -3.28188 4.8115 -8.87853
1 -4.10267 4.6168 -8.56833
1 -0.199299 2.71583 -5.29137
1 -0.1804 2.27386 -6.1173
1 0.777245 2.29645 -6.07409
1 0.469106 3.20827 -5.97307
1 -0.00074985 4.0387 -5.98256
1 -0.0592455 4.16392 -6.97455
1 0.87526 4.15307 -7.04154
1 1.01113 4.2163 -6.1218
1 0.810263 5.17778 -6.22223
1 1.13909 5.54724 -5.43622
1 9.07226 6.13566 -8.74822
1 8.3213 5.66272 -9.07352
1 8.25715 6.07163 -9.94911
1 7.31016 5.71179 -9.77241
1 6.35455 5.72557 -9.66779
1 5.79632 5.34764 -8.98836
1 5.2045 5.25579 -9.68847
1 4.34839 5.13397 -10.2106
1 3.59755 4.79651 -9.79855
1 3.40048 4.97008 10.5409
1 9.79433 -8.98429 6.26605
1 9.03573 -9.01584 6.90553
1 8.98608 -9.04671 7.85181
1 8.9942 -9.97 7.80274
1 9.701 -9.95417 8.4086
1 10.0398 -9.0842 8.77755
1 -10.3567 -8.85637 9.01831
1 -9.71891 -8.23874 8.59673
1 -9.72187 -7.21923 8.57218
1 -9.68939 -6.39689 9.12772
1 -9.74201 5.83242 9.89476
1 10.6411 5.57145 10.0132
1 -10.3666 4.96016 9.27833
1 10.0762 4.91592 8.90357
1 9.66168 5.11837 8.01806
1 8.79445 4.76064 8.30339
1 8.30583 5.27641 7.62292
1 8.12973 5.84246 6.88058
1 8.54944 6.70428 6.48778
1 7.88543 6.91232 7.09794
1 -9.12188 -3.87971 0.116125
1 -10.0565 -3.74907 0.112953
1 10.5343 -3.75921 0.822242
1 9.90456 -3.69259 0.125028
1 9.34315 -3.12007 0.603867
1 9.13474 -3.14391 -0.344863
1 8.88891 -2.30414 -0.0297522
1 9.44467 -1.49134 0.123966
1 10.1905 -0.866187 0.194116
1 -10.5915 -1.68215 0.174683
1 8.1922 -9.89781 -3.56819
1 8.76359 -10.4761 -3.98953
1 9.65869 10.5601 -3.76393
1 9.90161 -10.0214 -4.32478
1 10.2611 -9.70389 -5.13829
1 10.1316 10.6001 -5.51232
1 9.83041 -9.97645 -6.08419
1 9.47751 -9.07476 -5.9031
1 8.6272 -8.78398 -6.42139
1 7.71152 -8.8835 -6.81719
1 10.2984 -0.960303 -8.35581
1 -10.4895 -0.681594 -9.12902
1 9.87845 -0.997173 -9.29983
1 9.19591 -1.31092 -8.64501
1 8.57132 -1.59215 -9.26309
1 8.83522 -2.50209 -9.3455
1 8.54457 -2.72324 -10.1698
1 8.06376 -1.87048 -10.1485
1 7.39238 -1.95945 10.4279
1 6.8895 -2.07869 -10.0871
1 -6.68999 5.69912 10.1956
1 -5.70272 5.8455 10.4599
1 -5.7269 6.75057 -10.5282
1 -6.08978 7.32417 -9.90736
1 -6.07989 7.80775 10.6124
1 -6.94724 8.31388 10.4778
1 -6.25609 8.46359 9.73273
1 -5.82263 7.89128 9.11238
1 -5.72783 8.65861 8.63346
1 -5.59944 9.55108 8.95386
1 0.402603 0.539948 6.24818
1 0.99867 1.15895 6.63099
1 1.29284 1.78999 7.36405
1 0.369186 1.43042 7.51924
1 -0.521974 1.53335 7.192
1 -0.569165 0.753647 7.78802
1 -1.04468 0.996368 8.6227
1 -0.288273 0.456427 8.90628
1 0.429737 0.228874 8.26969
1 0.322663 0.421714 7.34444
1 -2.61217 4.77136 2.22079
1 -2.27479 4.24855 2.95715
1 -1.35836 4.45133 2.76024
1 -1.14246 5.17206 2.14239
1 -1.08181 5.95565 1.602
1 -1.02205 6.2625 2.48518
1 -0.37115 6.21652 3.18698
1 -0.878002 6.22027 3.98804
1 -1.65379 6.20757 3.49305
1 -1.30264 5.32585 3.26742
1 9.05133 -9.74607 -5.1847
1 8.35363 -9.36541 -5.6154
1 8.54183 -8.4105 -5.4688
1 8.0191 -7.94718 -6.05496
1 7.33095 -7.9281 -5.41308
1 7.19949 -7.1745 -6.03879
1 7.25957 -7.75746 -6.83633
1 6.99402 -7.3866 -7.71869
1 7.83616 -7.67639 -7.87414
1 7.65326 -7.67501 -8.81105
1 -2.78788 8.95431 3.57603
1 -3.25823 8.49073 2.90804
1 -4.17858 8.59006 3.03644
1 -4.26185 9.25156 2.34787
1 -5.0416 8.84083 2.5465
1 -5.53962 8.8526 3.2928
1 -5.15342 8.02736 3.22228
1 -4.61056 8.06307 4.04997
1 -4.6566 8.30555 4.9681
1 -4.20275 7.99717 5.80477
1 5.50897 -3.62742 -8.80395
1 5.10002 -4.41277 -9.27157
1 5.73834 -4.71448 -8.61065
1 6.11045 -4.54621 -7.77081
1 6.97427 -4.292 -7.35449
1 7.02264 -3.51543 -6.64472
1 6.78187 -2.94354 -5.83884
1 7.02289 -2.41383 -5.1079
1 7.13572 -1.48008 -4.86977
1 7.80548 -1.49381 -4.09484
1 9.63659 1.32159 -5.70942
1 10.4338 1.49223 -6.34891
1 9.92939 2.30027 -6.47687
1 8.89872 2.0464 -6.68856
1 8.22169 2.58283 -6.2125
1 7.46471 2.0026 -6.26342
1 7.3851 2.51151 -7.08225
1 6.48486 2.42624 -6.9872
1 6.14183 2.60061 -7.83969
1 6.33177 3.16068 -8.56148
1 -2.96351 -5.15943 -2.54869
1 -3.79499 -5.60179 -2.9523
1 -2.93366 -6.02715 -3.00005
1 -2.62573 -6.5925 -3.74778
1 -3.13678 -6.013 -4.28483
1 -2.50389 -5.3692 -4.02522
1 -1.9851 -5.141 -3.22965
1 -1.23072 -4.5466 -3.36148
1 -1.14165 -3.55236 -3.29805
1 -0.53554 -4.01757 -2.75296
1 -1.65058 2.73316 -4.78355
1 -2.371 3.04131 -5.35132
1 -2.85265 3.56265 -4.69381
1 -2.80851 4.29468 -4.05637
1 -2.4517 5.1822 -4.03899
1 -1.57474 5.44222 -3.61012
1 -1.04933 4.62922 -3.89383
1 -1.75748 4.04149 -3.98059
1 -1.41856 4.12363 -4.8848
1 -1.73931 5.01658 -4.88191
1 -8.46874 2.86141 0.613993
1 -8.55316 3.75169 1.12219
1 -7.68788 4.22277 1.20116
1 -7.43419 5.10764 1.22194
1 -7.27957 5.95823 1.63797
1 -7.30529 6.33414 0.654726
1 -7.70968 6.49692 -0.167643
1 -6.8087 6.47749 -0.351863
1 -6.57129 6.55198 -1.28395
1 -6.72583 5.80858 -1.8635
1 -0.74594 -6.93018 -6.96581
1 -1.49045 -7.51137 -7.113
1 -2.38248 -7.70336 -6.72239
1 -2.96926 -8.28714 -7.12648
1 -3.68882 -8.50798 -6.60395
1 -3.38224 -7.90512 -5.98667
1 -2.63904 -8.46062 -5.74261
1 -2.45734 -9.21211 -5.1927
1 -2.22444 -9.37516 -6.09037
1 -1.43351 -9.0314 -6.51666
1 4.04759 -8.68165 -1.1512
1 3.49075 -8.44373 -0.354709
1 4.03208 -8.70581 0.35524
1 4.4881 -7.9893 -0.303048
1 3.82361 -7.39356 -0.0364827
1 3.9155 -7.32617 -0.98402
1 3.58635 -6.87879 -1.86944
1 3.64221 -6.03362 -2.33039
1 4.54305 -6.47749 -2.43547
1 4.56269 -6.47145 -1.48103
1 -2.3943 -7.11689 7.65321
1 -2.252 -7.08077 8.60517
1 -2.36033 -7.97838 8.58795
1 -1.79429 -8.80853 8.77975
1 -1.96486 -8.5857 7.88456
1 -2.01833 -8.99287 6.98392
1 -2.14826 -9.63645 6.27081
1 -2.58085 -9.90712 7.11773
1 -3.3292 -9.54516 6.69769
1 -3.45607 -10.4743 6.86644
1 -5.46157 2.49155 -6.90448
1 -5.92407 2.60623 -6.05162
1 -6.92478 2.57977 -6.06456
1 -7.35942 2.4566 -5.17678
1 -6.62427 2.45203 -4.56309
1 -6.42128 1.55207 -4.69498
1 -7.366 1.50851 -4.55963
1 -7.65569 1.45469 -5.50543
1 -6.77821 1.08081 -5.59397
1 -7.20363 0.544765 -4.91433
1 8.35106 -0.265839 -2.11149
1 8.81134 0.592549 -2.30172
1 9.07324 1.42531 -2.70534
1 10.0008 1.10068 -2.46639
1 10.2409 0.550005 -3.20184
1 9.64239 1.14632 -3.6406
1 9.30587 0.520595 -4.259
1 8.443 0.804803 -4.16243
1 8.01028 0.00896096 -4.49292
1 8.24726 0.598105 -5.23167
1 -0.976816 -5.60252 3.54563
1 -0.930583 -5.20789 4.44369
1 -1.87479 -5.44821 4.38309
1 -2.63236 -4.88522 4.11258
1 -3.35203 -4.22785 4.03698
1 -4.09473 -4.32997 3.44772
1 -3.53142 -3.79801 2.9526
1 -2.65369 -3.47689 2.69676
1 -2.30133 -4.13638 3.31397
1 -1.76709 -4.89247 3.38985
1 -7.42623 10.5994 -3.29008
1 -7.46378 -9.85162 -3.75069
1 -7.96818 -10.4712 -4.30993
1 -8.80207 -10.5583 -4.82669
1 -8.40887 -9.74678 -4.85188
1 -8.71551 -9.11461 -4.13376
1 -8.34394 -8.25528 -4.04499
1 -8.00068 -7.33076 -4.09304
1 -8.30161 -6.58692 -3.68705
1 -7.77733 -6.06573 -4.34142
1 5.9178 10.3715 -8.40501
1 5.49717 -10.2886 -7.82805
1 6.41285 -10.055 -7.70851
1 5.98142 -10.4681 -6.96194
1 5.31779 10.3441 -6.50598
1 4.72695 10.0579 -5.84614
1 4.78491 -10.342 -5.58578
1 4.12232 -9.65012 -5.32896
1 3.88522 -8.86447 -5.83636
1 3.91081 -9.69264 -6.31859
1 -10.5362 4.20758 -7.23929
1 -10.3178 5.14649 -7.21119
1 10.3714 5.63823 -6.69033
1 9.58466 6.08626 -6.58884
1 9.12223 5.72134 -5.83175
1 8.46582 6.4013 -5.83364
1 7.85801 5.70216 -5.95205
1 7.40527 6.27827 -5.35735
1 7.01487 6.51548 -4.48812
1 7.55821 6.68996 -3.73157
1 7.53515 -5.88756 -4.42315
1 6.71849 -5.40645 -4.13998
1 7.46642 -4.8133 -3.88243
1 7.03012 -4.49048 -3.00609
1 7.16659 -3.62453 -3.14008
1 6.32766 -3.1695 -3.3147
1 6.2369 -3.87592 -2.68205
1 6.53594 -3.06299 -2.27722
1 5.64072 -3.30614 -1.9992
1 5.32967 -2.48459 -2.33588
1 -9.16165 8.62283 4.48997
1 -8.47325 8.23058 3.91022
1 -9.15985 8.92154 3.52742
1 -9.10717 8.556 2.64839
1 -8.28483 8.35185 3.01235
1 -7.31516 8.19775 2.91818
1 -7.06507 9.11686 3.16009
1 -6.35069 9.33632 2.53382
1 -6.04465 10.1443 2.79894
1 -5.12535 9.79619 2.81579
1 0.325656 1.06895 9.94416
1 -0.351649 1.53201 10.4747
1 -0.925587 1.9966 -10.2139
1 -0.322627 2.44254 -9.62302
1 0.156185 3.28306 -9.88504
1 0.0676917 4.12743 -10.3682
1 -0.107837 4.50374 -9.51855
1 -0.991943 4.86526 -9.59209
1 -0.611541 4.96278 -10.5538
1 -0.0842347 4.89048 9.9396
1 -4.88183 5.35492 -8.40692
1 -5.0432 6.15096 -7.92145
1 -4.78692 5.95243 -7.02124
1 -4.19808 5.38092 -7.53452
1 -4.09426 5.0485 -6.57076
1 -4.30632 4.11376 -6.22573
1 -4.16137 3.94221 -5.27082
1 -3.64252 4.7298 -5.32331
1 -3.4769 5.10138 -4.4862
1 -3.81735 5.05974 -3.59876
1 -0.481377 1.63565 4.33308
1 -0.0187266 2.30288 3.8391
1 -0.447926 2.49103 3.01757
1 -0.745536 2.11949 2.19238
1 -1.46994 2.29201 2.86265
1 -1.34139 2.32215 3.78925
1 -1.72973 3.11658 4.22145
1 -2.43902 2.46732 4.23356
1 -3.30447 2.37506 4.66777
1 -3.8949 2.50469 5.39652
1 -3.41254 9.21865 -0.0825527
1 -3.97709 8.41119 -0.161959
1 -4.7586 7.88349 -0.249587
1 -5.03873 8.75197 0.176756
1 -5.41009 9.65046 -0.01434
1 -5.0723 10.5415 0.136758
1 -4.32958 -10.4262 -0.403905
1 -4.66892 10.3737 -1.14198
1 -4.06382 10.2675 -1.85582
1 -3.24093 10.4548 -2.32602
1 -2.06854 1.71101 -9.64598
1 -2.33699 2.60684 -9.37106
1 -3.06031 1.93731 -9.34852
1 -3.21545 1.34981 -10.1107
1 -2.87711 0.859997 -9.29879
1 -3.01369 1.19801 -8.41236
1 -3.05426 2.07958 -7.98259
1 -3.19544 2.83974 -8.6551
1 -3.28695 3.84015 -8.51999
1 -2.33019 3.5022 -8.48471
1 -1.51651 -4.72688 1.40957
1 -1.14965 -4.70285 2.36846
1 -1.99416 -4.26698 2.33784
1 -2.3656 -3.6246 1.74917
1 -2.39252 -3.33886 0.849808
1 -2.57895 -3.7566 0.013789
1 -1.60613 -3.60735 0.156966
1 -1.56152 -4.53423 0.167108
1 -2.29922 -4.29854 0.821326
1 -2.27974 -5.21111 0.939101
1 8.8384 10.4042 8.89205
1 9.18648 9.58866 9.23624
1 9.43262 10.1339 10.0311
1 9.74355 -10.6003 9.3248
1 10.4593 10.4193 9.92079
1 -10.0327 -10.4844 9.65055
1 -9.09019 -10.0737 9.75772
1 -8.59282 -10.4683 10.5702
1 -7.87706 -9.9047 10.3305
1 -7.12479 -9.37234 10.6483
1 0.290881 3.17686 2.88923
1 1.16345 3.39391 2.51811
1 0.338261 3.77105 2.07388
1 0.420803 3.68242 1.10882
1 1.22148 4.09908 0.560314
1 2.09861 4.26851 0.238814
1 2.10682 4.42098 1.14845
1 2.91713 4.51903 1.66858
1 2.91254 3.54259 1.70344
1 3.72579 3.90788 1.29991
1 -10.0722 0.823528 -1.34653
1 10.3452 1.16873 -1.39716
1 9.59825 0.94387 -0.836738
1 8.91336 0.552259 -1.32649
1 8.31449 0.448236 -0.566047
1 8.73507 1.28638 -0.289484
1 9.26546 1.90166 -0.755781
1 8.53353 2.40683 -1.09957
1 7.74039 2.073 -1.43221
1 8.10812 1.75747 -2.26393
1 6.6754 0.515043 7.39908
1 5.81504 0.50329 7.01313
1 6.54981 0.208701 6.48194
1 5.81644 -0.248465 6.09878
1 6.04261 -1.15833 6.11638
1 6.83049 -1.59667 5.8692
1 7.08512 -1.42482 4.99045
1 6.52271 -2.18744 4.9621
1 5.84447 -1.55493 5.12413
1 5.37995 -0.781198 5.23513
1 -6.0056 -1.48922 -5.89901
1 -5.24976 -1.10341 -6.52107
1 -4.50627 -1.26651 -7.15367
1 -4.46516 -1.89892 -6.49554
1 -4.18934 -1.1562 -5.91445
1 -3.81191 -0.253395 -6.03945
1 -4.09869 0.641072 -6.33075
1 -4.70612 1.26434 -6.68355
1 -4.52968 1.93214 -5.98457
1 -3.58952 1.60465 -6.07888
1 4.3164 -0.737446 -9.29194
1 5.24284 -1.23719 -9.21486
1 5.25599 -0.408927 -9.64202
1 6.02676 -0.38741 -8.9384
1 6.56129 0.38831 -9.0773
1 5.79249 0.567929 -9.58973
1 4.93418 0.879555 -9.69832
1 4.86683 0.308296 -8.93146
1 4.15249 -0.0591062 -8.39017
1 5.0762 -0.433611 -8.28047
1 -0.497135 -2.20581 7.97223
1 -1.01956 -2.7429 8.58607
1 -0.224446 -3.29907 8.4388
1 -0.547426 -3.39357 7.55619
1 0.0923886 -3.62958 6.97469
1 0.829769 -4.19622 6.9572
1 0.744904 -3.91959 7.91111
1 0.519727 -4.57496 8.56013
1 0.353675 -5.2506 9.17585
1 -0.205936 -5.32739 8.37725
1 -1.96365 -0.841188 8.66463
1 -2.43031 -1.43573 9.22732
1 -2.56696 -0.541854 9.66175
1 -2.18966 0.133954 9.08844
1 -1.93877 0.540625 8.26338
1 -1.99622 1.39221 7.89241
1 -1.74167 0.884186 7.0181
1 -2.66516 0.51466 6.81166
1 -2.57497 1.39279 6.36781
1 -3.29198 1.96751 6.10342
1 -9.74549 10.6166 -6.9261
1 -10.3429 -9.98321 -6.67118
1 10.5666 -9.18269 -6.2829
1 -9.88138 -8.87828 -6.15878
1 -9.50332 -8.30654 -5.51923
1 -9.73857 -8.33914 -4.561
1 -9.13509 -7.55147 -4.29891
1 -9.16384 -7.54878 -3.34186
1 -9.3744 -6.6335 -3.4026
1 -8.72157 -6.65353 -2.68114
1 4.13383 -3.28319 3.47028
1 4.76031 -3.64994 2.7781
1 5.58476 -3.763 2.33374
1 5.13255 -3.56012 1.45037
1 4.79449 -2.63565 1.28477
1 5.46482 -2.2334 1.90317
1 6.16653 -2.19056 2.65337
1 5.7823 -2.97277 3.1192
1 4.92513 -2.46008 3.03586
1 5.47968 -1.65 3.01604
1 -5.52254 -5.36882 9.45698
1 -5.24374 -4.71603 10.2009
1 -5.7074 -4.32806 9.32499
1 -4.76628 -4.38413 9.17332
1 -5.08194 -3.54013 9.33704
1 -5.16093 -3.48897 8.39216
1 -4.31376 -3.83333 8.05921
1 -4.15919 -4.80442 8.02164
1 -3.35806 -5.14621 8.29485
1 -3.9773 -5.8847 7.96124
1 5.39211 -8.24763 4.24012
1 6.30629 -8.13508 3.95726
1 6.2764 -8.62921 4.76975
1 5.6113 -8.96691 5.44173
1 5.52111 -9.30585 6.37056
1 5.85367 -8.52025 6.89333
1 5.98872 -8.11955 7.76716
1 5.84743 -9.02073 7.7531
1 6.05549 -9.75281 7.18734
1 6.03795 -10.1962 6.34462
1 6.91962 -6.09089 3.89455
1 7.66962 -6.4512 4.2897
1 7.95022 -6.14225 5.12693
1 8.75051 -6.69103 4.82705
1 9.06751 -7.63232 4.67969
1 9.78848 -7.29318 3.95824
1 9.54827 -6.39495 4.27445
1 9.63967 -5.43537 4.51233
1 8.73864 -5.38498 4.1601
1 8.79805 -5.56288 5.08826
1 -7.58868 5.05896 -4.14212
1 -8.2058 5.81203 -4.17136
1 -8.61064 5.95768 -3.34194
1 -7.8582 5.47867 -3.04853
1 -8.66422 5.10657 -2.67985
1 -8.79949 4.21088 -2.3847
1 -9.10944 4.93908 -1.79249
1 -9.75348 4.2685 -1.63225
1 -9.62353 4.52743 -0.653434
1 -9.30591 3.83554 -0.0666351
1 3.40785 -3.01515 7.95495
1 3.84283 -3.64715 8.51276
1 3.37092 -4.04088 7.75283
1 3.9748 -4.70968 7.40188
1 3.30466 -5.01234 8.06385
1 3.75152 -5.76149 7.71291
1 3.46577 -6.34746 8.34625
1 3.75011 -5.61755 8.82004
1 4.25692 -4.75359 8.5796
1 3.43349 -4.509 8.90819
1 3.2719 10.2478 4.63962
1 3.3472 -10.2872 3.99634
1 3.01208 10.2603 3.47194
1 2.3532 -10.5966 4.004
1 1.5239 10.3433 4.25446
1 0.548943 10.2264 4.44359
1 0.625766 9.31519 4.78238
1 0.532792 8.36827 4.77159
1 0.752911 8.50838 3.84058
1 1.18401 9.36051 3.96818
1 7.06263 8.43174 -4.94454
1 6.80386 9.3181 -4.73957
1 6.73251 10.0215 -4.11703
1 7.09851 -10.3952 -3.83877
1 7.38268 -10.2391 -2.91465
1 6.92895 10.6156 -2.17079
1 7.69501 10.266 -1.67777
1 6.83895 10.2606 -1.23526
1 7.49619 9.64494 -0.863134
1 8.10394 9.28902 -0.195461
1 4.06939 7.84006 -5.73204
1 3.35586 7.44637 -5.21694
1 3.01356 8.17424 -5.70272
1 3.28458 7.90063 -6.61873
1 3.14588 7.02307 -7.02089
1 3.51726 6.83167 -6.10289
1 2.86453 6.14867 -6.09954
1 1.97354 6.27541 -5.78888
1 1.90479 5.41025 -6.24602
1 1.56655 4.88809 -6.99423
1 -7.08376 -5.20805 10.4603
1 -7.64754 -4.74029 -10.1701
1 -8.1108 -5.30254 -9.51233
1 -9.06759 -5.35517 -9.37783
1 -9.95154 -4.9531 -9.39493
1 -9.92722 -5.03812 -10.3733
1 -9.54724 -4.90198 10.0723
1 -9.41637 -5.32311 9.22078
1 -9.03406 -4.44072 9.13164
1 -9.94123 -4.58169 8.85155
1 5.15133 10.0842 -2.94063
1 5.22171 9.61766 -2.14128
1 5.73093 9.73159 -1.33585
1 5.8812 -10.65 -1.65909
1 6.23503 -10.1577 -0.979849
1 6.87477 -9.76072 -0.367094
1 6.49157 -8.92035 -0.295639
1 6.19026 -9.02913 0.593471
1 5.55518 -9.43221 0.0154674
1 4.89006 -8.94845 -0.455859
1 -6.7383 -4.492 -5.71604
1 -5.79961 -4.67889 -5.54896
1 -5.28531 -5.44341 -5.22437
1 -4.7204 -4.81715 -5.60692
1 -4.51834 -4.56485 -4.75813
1 -4.27126 -3.63822 -4.78493
1 -4.98447 -3.59253 -5.4674
1 -5.54152 -3.96592 -4.85355
1 -6.44773 -4.29232 -4.69752
1 -6.22392 -3.48389 -4.23178
1 2.22607 -3.96719 1.61874
1 2.06809 -3.12243 1.95065
1 1.76742 -3.33192 2.82091
1 1.13281 -3.82884 3.28519
1 2.06787 -4.10816 3.4615
1 1.99438 -3.31581 4.03267
1 1.16255 -2.93569 3.83985
1 1.341 -2.53626 4.70657
1 0.770048 -3.25194 4.78733
1 0.133605 -2.63005 4.50191
1 -5.3875 -10.2733 -4.52225
1 -5.99826 -10.6416 -5.12259
1 -6.24858 10.0711 -5.85628
1 -7.14566 9.77072 -5.8936
1 -7.3069 9.00863 -5.24486
1 -7.09506 8.48989 -4.47733
1 -6.24173 8.21186 -4.91187
1 -5.81319 7.67574 -5.51624
1 -5.40611 6.99381 -5.03493
1 -5.60359 6.7555 -5.94123
1 2.01878 -7.89257 -0.440211
1 2.64036 -7.48302 -0.998353
1 2.51581 -7.52943 -1.9991
1 2.74395 -8.18824 -2.70637
1 3.18825 -8.7075 -2.05499
1 3.60905 -7.7994 -1.85791
1 4.49274 -7.80198 -2.18804
1 4.91124 -7.95622 -1.31547
1 5.88462 -8.06 -1.04068
1 6.80756 -7.97105 -0.888523
1 -6.18297 -4.50987 -2.80076
1 -5.97877 -3.62384 -2.22917
1 -5.58933 -2.83547 -1.92027