8000
Atoms. Timestep: 0
1 6.99998 0.443631 0.504505
1 6.80245 0.489063 1.51627
1 6.18143 -0.14273 1.1416
1 6.55053 -0.893953 0.681612
1 7.05722 -0.559682 -0.0465112
1 6.57169 0.0423612 -0.598223
1 5.93658 0.745738 -0.756712
1 6.67214 1.02679 -0.22551
1 6.19054 1.86087 0.0712353
1 5.2875 2.02345 -0.3222
1 -2.40127 5.17489 8.57578
1 -3.22802 5.30394 8.96496
1 -3.14038 5.09926 9.93467
1 -2.51689 5.57573 -10.2108
1 -2.10389 5.28308 9.74356
1 -1.55693 4.94521 -10.2381
1 -1.82484 5.21975 -9.37132
1 -2.32074 5.56328 -8.63428
1 -2.20582 5.74984 -7.71378
1 -1.3914 5.50929 -8.07103
1 3.00718 -8.35794 -8.67769
1 3.36802 -8.0032 -9.4631
1 2.45706 -7.87524 -9.46935
1 2.6753 -7.65457 10.3475
1 1.89562 -7.19819 -9.94974
1 1.52019 -6.45851 -9.58838
1 1.9243 -5.62231 -9.81427
1 1.36336 -5.07014 -9.3066
1 1.34356 -5.64754 -8.55206
1 1.55493 -6.64803 -8.45875
1 -5.19816 0.935584 2.52009
1 -5.93383 1.16041 1.90732
1 -6.00542 0.385097 1.30369
1 -5.12109 0.680598 1.2981
1 -4.4424 0.467945 0.663685
1 -4.37978 -0.331288 0.130334
1 -3.68105 -0.926825 -0.0914547
1 -3.13596 -0.683117 0.700556
1 -3.6264 -0.236061 1.32925
1 -3.53912 0.718927 1.42108
1 -3.88834 3.06568 9.08694
1 -4.68785 3.47901 8.95817
1 -5.2046 4.18116 8.53631
1 -5.32519 5.12534 8.77012
1 -5.21595 6.05079 8.92086
1 -5.1323 5.88464 7.92155
1 -5.4733 6.71922 7.644
1 -4.53548 6.91898 7.63269
1 -4.03894 7.78038 7.4935
1 -4.12114 8.44114 8.25031
1 9.91761 1.50772 -8.84266
1 9.58643 2.49251 -8.79888
1 8.86274 1.81175 -8.83799
1 8.42386 2.65948 -9.07796
1 8.6766 3.32869 -8.41731
1 8.82456 4.19091 -8.09608
1 9.38656 4.07841 -8.82446
1 10.2168 4.36252 -8.47447
1 -9.55139 4.35043 -8.41942
1 -8.71347 4.67813 -8.22254
1 -5.59895 8.10976 -5.17433
1 -6.49498 7.91049 -4.7662
1 -7.12759 8.6296 -4.77085
1 -6.35969 8.77522 -5.28188
1 -6.05176 8.39881 -6.1619
1 -5.36823 8.30989 -6.82854
1 -5.86222 9.03054 -7.34398
1 -6.51262 8.79916 -8.08887
1 -6.56975 8.16149 -7.29708
1 -7.34814 8.8464 -7.24986
1 -3.43612 -8.15075 -9.79415
1 -3.15465 -8.23726 10.0671
1 -2.35368 -7.97166 -10.2379
1 -2.50678 -7.40755 -9.54749
1 -3.04701 -6.92696 -10.1459
1 -3.31556 -6.24579 9.97839
1 -4.13117 -6.66713 9.57407
1 -4.89022 -6.55122 10.0901
1 -5.05861 -5.7015 -10.096
1 -5.40363 -5.21496 9.83745
1 -7.21081 -6.02474 -9.59248
1 -7.40283 -5.41532 -10.3303
1 -8.35285 -5.27236 -10.132
1 -7.9228 -4.69742 -9.3881
1 -8.61968 -4.44841 -8.85694
1 -9.5227 -4.68347 -8.61324
1 -10.2812 -4.67109 -9.13575
1 -10.0806 -5.5701 -8.99715
1 9.85213 -6.10663 -9.11669
1 8.96749 -6.46557 -9.05893
1 9.99267 -4.17076 5.92397
1 9.47259 -3.72562 6.59892
1 8.76792 -3.09981 6.51148
1 8.28509 -3.94518 6.51949
1 8.52924 -4.86112 6.44813
1 9.0351 -5.48343 6.93963
1 9.72709 -5.04825 6.43931
1 -10.1182 -5.10754 5.95264
1 10.1265 -5.66578 5.37997
1 9.44413 -6.10239 5.85203
1 9.31598 -9.55118 4.2412
1 8.54328 -9.419 4.7388
1 8.29546 -9.04197 3.86884
1 7.44751 -9.06708 4.3134
1 6.79218 -9.74862 3.9768
1 6.95491 10.0674 3.60265
1 7.30452 9.15141 3.40023
1 7.75627 8.53035 2.76548
1 7.15825 8.12787 2.16473
1 6.85643 8.99931 2.26117
1 -1.85203 3.04122 2.67937
1 -1.19777 3.60113 2.2258
1 -0.578349 2.93686 2.5087
1 0.277661 2.52305 2.67532
1 0.942334 3.06328 3.13291
1 1.27559 2.13017 3.22246
1 2.17146 2.28075 3.36059
1 1.86829 1.60731 3.97745
1 1.33832 1.71097 4.72469
1 1.41751 0.803697 5.21919
1 8.38333 -3.56449 -2.1399
1 7.48383 -3.26082 -2.0833
1 7.57811 -4.22911 -2.11824
1 7.54214 -3.9095 -3.03001
1 8.38832 -3.61483 -3.37373
1 8.45832 -4.5916 -3.38499
1 7.92461 -4.96349 -4.0674
1 7.68601 -5.89636 -3.98666
1 6.87275 -6.03327 -4.4457
1 5.98964 -6.01946 -4.10251
1 7.45057 6.27397 -6.75793
1 6.72317 6.06817 -7.37461
1 6.09426 6.26897 -8.13661
1 5.23655 6.5476 -7.85306
1 4.36541 6.24374 -7.68326
1 3.82213 6.33619 -6.9177
1 2.91562 6.49615 -7.26589
1 2.23871 6.62109 -6.55992
1 3.04976 6.28763 -6.09132
1 3.15798 6.26269 -5.12441
1 -8.35475 2.43022 9.65498
1 -9.05692 3.02515 9.62772
1 -9.67614 3.28257 10.3423
1 -9.57889 2.66863 -9.6948
1 -8.70906 2.31359 -9.76402
1 -7.89395 2.77658 -9.59272
1 -8.4461 3.24072 -10.2487
1 -7.536 3.30371 10.1715
1 -7.44662 2.25603 10.333
1 -6.5924 2.66045 10.2019
1 6.55383 0.0153219 9.92908
1 6.66772 -0.709264 -10.2405
1 7.40431 -0.408849 -9.68564
1 8.05852 -0.974537 -10.0232
1 8.51038 -1.75217 -9.64387
1 9.27965 -1.25215 -9.24112
1 9.75578 -1.0457 -8.40061
1 -10.3006 -1.76112 -8.48972
1 -9.63558 -1.11113 -8.4181
1 -8.89034 -0.449507 -8.22875
1 3.64017 1.17595 4.84997
1 2.7265 1.25852 4.6637
1 2.25728 1.7352 5.36621
1 1.6351 1.88251 6.11629
1 1.78291 1.53369 6.99049
1 1.9951 0.946177 6.30038
1 2.03917 0.0537733 5.83705
1 2.70631 0.258605 6.52356
1 3.14608 0.810203 5.85337
1 3.15106 1.03209 6.8252
1 -8.81591 -9.3404 0.978969
1 -9.29309 -10.0036 0.474828
1 -10.1149 -10.0643 -0.0378673
1 -10.21 9.78031 -0.299837
1 -9.27 9.73863 -0.297114
1 -9.51099 8.98642 0.136206
1 -9.95002 8.49358 -0.619474
1 -9.87276 9.28622 -1.16841
1 -9.05613 9.00928 -0.887404
1 -8.80524 8.99717 -1.79589
1 7.84594 1.33402 -8.85663
1 8.0158 0.440894 -9.23352
1 7.0218 0.52742 -9.55007
1 6.79812 0.930709 -8.7262
1 7.50983 0.628359 -8.09965
1 8.01926 1.37693 -7.73729
1 8.28491 2.22625 -8.15641
1 9.21178 2.04758 -7.94147
1 8.51611 2.08552 -7.18774
1 7.53685 2.03121 -6.97587
1 4.22899 -0.139224 8.18798
1 3.6028 0.285871 8.80081
1 3.31375 0.36274 7.9292
1 2.74493 0.625927 8.63856
1 2.69242 -0.295423 8.48877
1 2.29248 0.0791433 7.6502
1 1.5561 -0.360767 8.18603
1 0.7631 -0.386689 7.56386
1 0.325125 0.4522 7.82801
1 0.944446 0.485267 8.55141
1 -2.23861 -6.4182 9.31153
1 -1.9526 -7.14478 8.79419
1 -2.57181 -7.49513 9.47333
1 -2.14255 -8.36493 9.34259
1 -1.29389 -8.36818 8.98978
1 -1.87386 -8.27068 8.19746
1 -2.57239 -7.66978 7.91255
1 -2.04351 -6.99596 7.44857
1 -2.00138 -6.18593 7.94731
1 -1.16573 -6.49573 8.2355
1 6.84753 -3.52419 -1.16435
1 7.20486 -2.60303 -1.08841
1 7.25433 -1.68956 -0.98593
1 8.12835 -1.91106 -1.39507
1 8.6677 -2.73265 -1.31997
1 9.29267 -3.19811 -1.85346
1 9.65527 -2.40116 -1.31939
1 9.88001 -2.29239 -2.21253
1 9.27769 -2.26112 -2.93711
1 8.53072 -2.56274 -2.38042
1 1.15009 -7.75486 4.63153
1 2.1548 -7.99934 4.33749
1 2.8781 -7.76297 4.87123
1 1.99786 -7.59982 5.26077
1 1.18753 -7.81426 5.6729
1 0.466649 -8.46184 5.56472
1 -0.223738 -9.1392 5.58762
1 -1.05142 -8.9982 6.11463
1 -1.83501 -8.92958 5.56765
1 -1.12331 -8.97389 4.89203
1 -7.43326 -9.80594 9.0592
1 -8.09839 -10.1032 8.43507
1 -8.78034 -10.2808 7.80308
1 -9.48588 9.76176 8.08603
1 -10.322 9.39117 8.24688
1 9.92371 9.16951 7.48952
1 9.49252 9.97839 7.41958
1 9.62258 -10.0692 8.11178
1 -10.2448 10.3461 7.77582
1 -9.9429 -9.82105 8.47675
1 8.53877 -3.76071 -7.81436
1 8.17078 -3.14197 -7.12277
1 8.65626 -2.33566 -6.78732
1 8.89037 -2.66436 -7.68676
1 9.65395 -2.44544 -8.30048
1 9.79813 -1.75762 -7.66257
1 9.90732 -2.53601 -7.1041
1 -10.0438 -2.92007 -7.58134
1 -9.67346 -3.75024 -7.56131
1 -8.92173 -3.17882 -7.61148
1 1.40283 -4.09673 -10.0459
1 1.23875 -4.43823 9.78817
1 0.531551 -4.49849 -10.3417
1 0.789851 -5.45526 -10.2294
1 1.40189 -5.82825 9.86164
1 1.65103 -5.37799 9.06467
1 2.11359 -4.48469 9.02156
1 1.20853 -4.49022 8.7719
1 0.442886 -3.88487 8.96583
1 0.512901 -4.03275 8.02234
1 5.33722 5.63508 -4.5991
1 4.83154 6.39746 -4.87713
1 5.3745 6.00408 -5.6087
1 5.77748 6.10018 -6.42403
1 6.51505 5.39478 -6.42828
1 7.185 4.70238 -6.27976
1 6.75155 4.70322 -5.3989
1 6.15856 5.41471 -5.3712
1 6.84255 5.59413 -4.78669
1 6.30915 4.85953 -4.42874
1 10.1721 -0.0127958 9.16121
1 9.61938 -0.780751 9.03554
1 10.2984 -1.0173 9.65626
1 10.3029 -1.71881 8.99097
1 -9.85785 -2.41034 8.60281
1 -9.58384 -1.72094 8.0265
1 -8.58259 -1.85656 7.99393
1 -8.90464 -2.62464 8.49481
1 -8.7597 -3.57357 8.30042
1 -8.39759 -2.89377 7.74391
1 -1.98825 -5.31278 7.32631
1 -1.85529 -4.72059 6.64784
1 -1.40993 -3.87025 6.74171
1 -1.50532 -3.17471 6.12331
1 -2.20184 -3.37935 5.5507
1 -2.5232 -3.44448 6.47989
1 -3.44541 -3.57256 6.47298
1 -3.28308 -3.69038 5.53629
1 -2.71355 -4.27948 5.96807
1 -2.97316 -5.22183 5.9604
1 1.77504 6.85341 5.13056
1 1.50635 6.6145 4.24859
1 1.72224 7.14662 3.42146
1 1.90863 7.65095 4.20898
1 2.70318 7.79139 4.75759
1 2.87094 7.73796 5.68922
1 3.15416 8.48912 5.29141
1 2.56178 8.9367 5.9185
1 1.61407 8.68606 6.17744
1 0.691262 8.76213 6.40203
1 -6.88713 -9.82163 2.93682
1 -7.34302 -9.07903 2.61415
1 -6.9119 -8.19605 2.58902
1 -7.34618 -7.99014 3.43027
1 -7.0672 -8.64343 3.99775
1 -6.97215 -8.42311 4.89819
1 -7.3848 -9.26247 4.81426
1 -7.0069 -9.68191 4.02078
1 -6.71258 10.1099 3.9572
1 -6.03398 -10.107 4.50106
1 3.21056 1.67279 -5.04089
1 2.41193 1.30288 -4.71889
1 3.00516 0.617328 -4.412
1 3.89709 0.358919 -4.83581
1 3.97766 1.25338 -4.46307
1 3.69762 0.957894 -3.55607
1 3.00348 0.316086 -3.27453
1 2.53439 0.710983 -2.56712
1 2.73685 1.28751 -3.25465
1 3.17976 1.85239 -3.92362
1 5.32414 4.51921 -4.56452
1 5.20487 4.97543 -5.39066
1 5.24022 5.01885 -6.32848
1 4.46063 4.50005 -6.40846
1 5.04859 3.75668 -6.41088
1 4.87632 3.86857 -5.44503
1 4.6964 2.99727 -5.7036
1 4.09671 2.27984 -5.23995
1 3.96659 2.74515 -4.39759
1 4.75767 3.23676 -4.53747
1 -4.48821 -5.60333 9.10106
1 -5.40007 -5.63722 8.59867
1 -4.86526 -4.89876 8.2508
1 -5.11585 -4.51807 9.08916
1 -6.08023 -4.52793 9.01324
1 -6.36496 -5.4235 9.09075
1 -6.01621 -6.19328 9.62869
1 -6.33866 -5.73687 -10.2982
1 -6.60072 -5.06539 -9.66185
1 -5.63806 -4.87675 -9.62818
1 5.51125 -1.13151 -0.228726
1 4.55811 -1.0487 -0.302469
1 3.88366 -1.4421 0.230841
1 4.12508 -2.32753 0.40778
1 3.3142 -2.37808 -0.0532399
1 3.07311 -3.30232 -0.243459
1 2.28786 -2.79494 -0.428887
1 2.31567 -2.23648 0.362797
1 2.71111 -1.70621 1.03402
1 2.84761 -1.14814 1.77561
1 -7.40044 5.02737 -0.955081
1 -6.64037 4.45773 -1.31404
1 -6.89458 3.8363 -1.94232
1 -7.08633 3.20921 -1.29988
1 -6.78779 2.33693 -1.09371
1 -6.33717 1.50901 -0.836791
1 -5.67427 1.49001 -1.51169
1 -6.06703 0.583368 -1.45066
1 -6.23191 0.941983 -2.30971
1 -5.43049 1.26386 -2.76815
1 2.01967 8.72831 -3.37222
1 1.47211 8.88801 -2.63107
1 0.894381 9.47037 -3.17753
1 0.960838 8.57744 -3.6125
1 1.36692 7.86296 -3.02692
1 1.07607 6.97776 -2.85796
1 1.46743 6.72265 -3.66658
1 1.13518 5.95476 -3.20931
1 0.779097 5.78525 -4.08521
1 1.47681 5.59304 -4.76402
1 9.35779 3.51551 -5.78994
1 9.14286 2.58746 -5.83982
1 9.45726 2.37864 -4.94803
1 10.3002 2.71167 -4.82601
1 -10.1665 3.2083 -4.03384
1 -10.1025 2.90444 -3.16606
1 -10.328 2.6166 -2.23317
1 -9.81781 3.12855 -1.57593
1 -9.14692 3.7776 -1.26868
1 -8.46746 3.12541 -1.13771
1 9.70652 3.46584 -1.36414
1 8.95546 3.48399 -0.77566
1 8.32324 2.82615 -1.05247
1 8.24977 2.26807 -0.31333
1 7.54801 1.60592 -0.510373
1 7.54293 2.24096 -1.19942
1 7.28512 3.10035 -0.838471
1 7.03603 2.46237 -0.164478
1 7.67826 2.7406 0.514028
1 7.53063 3.60951 0.134037
1 -1.44918 6.05176 -9.00463
1 -0.670664 5.50321 -8.97937
1 -0.27145 5.27934 -8.1336
1 -0.0542574 4.63341 -7.46487
1 0.146314 4.47047 -6.53011
1 -0.798828 4.58435 -6.49378
1 -0.772893 4.73974 -5.4782
1 -0.593122 5.30023 -4.71293
1 -0.103965 6.08277 -4.87482
1 -0.276959 5.98881 -3.91284
1 1.98019 9.15436 -6.61027
1 2.09711 8.9841 -5.68411
1 3.03232 9.08278 -5.92145
1 2.91079 8.46384 -6.6567
1 3.09876 9.35195 -6.93138
1 3.36609 8.87603 -7.75641
1 3.53319 9.84204 -7.66539
1 3.53377 10.0505 -8.58808
1 2.70616 9.54459 -8.40534
1 2.17609 9.23839 -7.66938
1 -2.76849 3.23995 -9.99983
1 -3.37834 3.81944 -9.50425
1 -3.44646 3.83707 10.2635
1 -3.9671 3.07283 -10.2829
1 -4.42001 3.76391 10.0358
1 -4.95568 3.00922 10.0301
1 -5.64431 2.42906 9.78355
1 -5.37582 1.63263 10.2285
1 -4.54693 1.98987 9.92818
1 -4.43021 1.28069 -10.0941
1 -3.54647 1.80723 8.91633
1 -3.2162 2.57135 8.45742
1 -2.90377 2.83979 9.36376
1 -2.32623 2.25266 9.89868
1 -1.84597 2.31097 9.13727
1 -2.22351 2.62492 8.28778
1 -2.42048 1.66016 8.3717
1 -2.61047 1.42505 9.24991
1 -1.80177 1.13693 9.62711
1 -2.49625 1.27905 10.2819
1 5.41685 -9.49801 -4.6556
1 5.56944 -8.59685 -4.34718
1 6.01864 -7.95742 -4.92791
1 6.91867 -7.71499 -4.7989
1 7.43908 -7.05227 -5.29412
1 7.6582 -7.59049 -6.1021
1 8.43831 -6.98735 -6.03462
1 8.21443 -7.13474 -6.95177
1 7.51506 -6.55524 -6.58439
1 8.18218 -5.88843 -6.87906
1 -4.85546 -5.19632 -0.809635
1 -4.99006 -4.36627 -0.324308
1 -5.07695 -3.50536 0.0341831
1 -4.90481 -2.54392 0.00887274
1 -4.01884 -2.20633 0.186082
1 -3.49217 -1.74291 0.776915
1 -4.3423 -1.3627 0.899851
1 -5.02284 -0.891313 1.42221
1 -4.5579 -0.175412 1.82567
1 -5.46028 -0.30046 2.22822
1 -2.52815 -5.09231 -1.63763
1 -3.43871 -4.9527 -2.03452
1 -2.91076 -5.69067 -2.35137
1 -3.78227 -5.75689 -2.70609
1 -3.25994 -6.00527 -3.44003
1 -2.34976 -5.94791 -3.24597
1 -1.8461 -5.69861 -2.391
1 -1.81706 -5.02466 -3.0862
1 -1.27402 -5.79113 -3.29275
1 -0.977307 -5.38714 -4.1137
1 -6.53684 6.23286 -6.77794
1 -6.64034 6.90723 -7.41723
1 -6.5443 6.16609 -8.02475
1 -5.74251 6.44327 -7.49682
1 -5.61245 7.3111 -7.1929
1 -6.04012 7.2842 -8.16579
1 -5.42963 7.31512 -8.88913
1 -5.66322 6.35826 -9.17207
1 -6.48141 6.73882 -9.09814
1 -6.72391 5.83821 -9.16972
1 0.559035 0.656564 -5.94988
1 1.40987 0.208381 -5.74341
1 2.23477 0.422185 -5.38441
1 1.67069 0.686754 -4.65082
1 1.01529 0.498434 -3.98889
1 0.159687 0.308897 -4.33362
1 -0.366733 0.672243 -3.66573
1 -0.0765936 -0.164114 -3.23866
1 -0.988562 -0.130037 -3.1021
1 -0.875991 -1.01274 -2.67157
1 -0.554588 8.94083 -10.1787
1 -0.711451 9.57148 -9.44922
1 -1.5518 9.24906 -9.007
1 -1.41282 8.51455 -8.43073
1 -1.23867 9.09053 -7.69609
1 -0.350544 9.18681 -7.37055
1 -0.75225 9.01456 -6.5237
1 -0.827569 9.54608 -5.71252
1 -1.26753 9.63485 -4.82769
1 -1.71831 10.2612 -5.2926
1 -10.1324 1.78541 -2.94756
1 -9.94153 1.23892 -3.71956
1 -9.72798 2.17561 -3.93274
1 -9.42339 1.82602 -4.81614
1 -8.66522 2.25389 -5.17459
1 -7.87121 2.4906 -4.60699
1 -8.47997 2.00045 -4.06226
1 -7.8032 1.36943 -4.48267
1 -8.0707 0.898515 -3.67813
1 -8.09221 0.313419 -4.41132
1 1.95863 -9.95663 2.87045
1 1.3569 10.0547 2.74268
1 0.471019 9.69907 2.78032
1 1.00311 8.8985 2.58034
1 0.912347 9.5286 1.88445
1 1.54624 9.05552 1.32317
1 1.97551 9.0363 2.1562
1 2.94873 8.82136 2.09445
1 3.09867 9.19093 1.18746
1 3.90664 8.8694 0.773735
1 5.96128 -4.75153 2.93166
1 5.37441 -4.52887 2.24439
1 4.74783 -3.73495 2.25217
1 4.96087 -3.81905 3.16855
1 5.40806 -4.30896 3.88683
1 6.28227 -3.99078 3.73037
1 6.76732 -4.84543 3.58879
1 7.17489 -4.14208 3.12292
1 7.62608 -4.81742 2.56908
1 7.79501 -5.75596 2.60638
1 8.41694 -9.18291 8.6598
1 9.01634 -9.06064 7.92697
1 8.52192 -8.93975 7.14534
1 7.84191 -8.30887 6.85508
1 8.61075 -7.8675 6.6029
1 8.88746 -8.07999 7.53322
1 8.03641 -7.58636 7.52048
1 7.11875 -7.95961 7.68312
1 7.1546 -7.58708 6.81812
1 7.62793 -7.57231 6.01519
1 9.97138 2.81921 -9.809
1 10.3475 3.21065 -9.01585
1 -9.89961 3.96583 -9.36111
1 9.90486 3.84807 -9.69318
1 9.15402 3.28935 -9.34318
1 8.4675 3.95263 -9.5558
1 7.73342 3.44299 -9.1054
1 7.50414 3.4429 -10.0448
1 7.5254 4.39366 -9.99105
1 6.70225 4.07476 -9.58144
1 -9.6496 -0.497744 -9.49452
1 -9.92601 0.343883 -9.04297
1 10.2805 0.734976 -9.79864
1 9.61727 1.41091 -9.90652
1 8.96367 2.09514 -9.81302
1 9.24981 2.35052 9.98558
1 10.0542 1.98886 9.48917
1 -10.0272 2.32006 10.1464
1 -9.88616 1.33885 10.2128
1 -10.1382 1.1351 9.31483
1 -2.59602 -1.54053 -0.321603
1 -1.95965 -1.19773 0.321321
1 -2.12031 -2.03732 0.749336
1 -2.60219 -2.64396 1.31672
1 -2.71342 -1.72244 1.70962
1 -2.39282 -0.850829 1.50629
1 -2.61974 0.0643726 1.75407
1 -1.99582 -0.194807 2.4213
1 -1.74844 -0.99303 2.95229
1 -1.83316 -1.40618 2.12789
1 6.01217 -9.38183 -5.84213
1 6.53014 -8.69211 -5.42874
1 6.6231 -7.78349 -5.76227
1 5.81414 -8.21993 -6.03828
1 5.24184 -8.57534 -6.69153
1 4.63278 -9.10205 -6.1648
1 3.7056 -9.31148 -6.12364
1 3.76559 -9.98724 -5.38484
1 4.54279 -9.46918 -5.10733
1 5.0894 -8.68535 -5.3193
1 7.2575 -9.7933 4.98118
1 7.86076 -10.1967 4.33784
1 8.65505 -10.193 3.86308
1 8.62893 9.62686 4.21269
1 9.10856 8.98951 4.86655
1 9.5091 9.88398 4.70042
1 9.73992 9.53672 5.59887
1 9.14422 9.94853 6.22213
1 8.35993 10.2516 6.65397
1 8.90681 -9.81607 7.14683
1 7.37439 -3.11664 9.2731
1 8.35604 -3.33272 9.35983
1 8.29421 -3.50563 10.2641
1 7.34039 -3.60338 10.2908
1 6.43468 -3.72543 10.0506
1 5.67152 -3.46206 9.58366
1 6.2104 -2.95171 8.96686
1 6.41663 -2.1391 9.38514
1 6.66221 -2.5815 10.2274
1 6.32109 -1.77686 -10.1871
1 -4.6333 -5.10078 -9.1991
1 -4.12523 -5.83492 -9.54088
1 -4.17898 -6.75532 -9.93175
1 -4.40353 -6.70029 -9.01869
1 -3.79651 -6.32735 -8.43253
1 -4.45233 -5.92636 -7.81213
1 -5.42835 -5.93462 -7.78015
1 -5.19142 -6.60052 -8.39571
1 -5.30876 -6.03212 -9.18439
1 -6.22451 -6.08831 -9.27629
1 2.44165 8.01286 9.39893
1 2.92625 8.139 10.2226
1 3.28252 7.35233 -10.2191
1 4.00974 7.98899 -10.3325
1 4.83885 8.37881 10.3484
1 4.60959 9.28987 -10.0394
1 4.66592 9.52237 9.71938
1 4.28311 10.2508 9.25103
1 5.07172 10.0318 8.78851
1 4.82409 -9.93963 8.21805
1 -6.14549 -7.68549 6.2157
1 -7.05152 -7.82256 6.67331
1 -8.06167 -7.89954 6.84745
1 -8.46152 -8.28674 5.95313
1 -9.38847 -8.5321 5.85614
1 -8.83828 -8.81688 5.11032
1 -9.13542 -8.78718 4.14031
1 -9.70467 -8.42578 4.75354
1 10.2459 -8.82644 4.45098
1 -9.79459 -9.47523 4.55699
1 2.16711 3.37449 -4.79183
1 2.09209 4.24553 -4.4822
1 1.75494 4.65421 -5.29518
1 1.17288 4.07145 -5.73331
1 0.340127 4.3366 -5.51428
1 -0.0594537 4.47849 -4.61833
1 0.904009 4.43663 -4.5554
1 1.05302 3.52124 -4.50959
1 1.2521 2.6424 -4.82914
1 2.03989 2.2385 -5.26968
1 -7.72203 2.88099 -0.419612
1 -8.4996 2.8473 0.150279
1 -8.62888 2.57346 1.06111
1 -8.0017 3.28581 1.015
1 -7.13269 2.8341 0.66301
1 -6.18727 2.60813 0.683044
1 -5.62731 1.99667 1.12642
1 -6.57014 1.67992 1.06825
1 -7.47226 1.59829 0.815906
1 -7.14486 0.918795 0.14183
1 10.2352 -0.38563 -10.1206
1 -10.3498 -1.24783 -9.63701
1 9.66477 -1.84355 -10.0042
1 9.48618 -1.53166 9.82606
1 9.17905 -0.952104 -10.2874
1 8.89863 -0.288834 -9.65312
1 9.43697 0.286 -10.1443
1 8.7848 0.804629 -9.7375
1 9.34878 0.521396 -9.0527
1 9.90973 -0.379002 -9.09641
1 3.72266 -2.80087 -7.50216
1 4.57286 -2.92834 -7.05222
1 5.18883 -3.05225 -7.79214
1 5.60863 -2.29783 -7.49203
1 6.04308 -2.17577 -6.64203
1 5.26571 -2.62741 -6.28988
1 4.42458 -3.05341 -5.97005
1 3.6982 -2.53161 -5.6648
1 3.83294 -2.19671 -6.57698
1 3.61691 -1.45573 -5.97712
1 8.35406 8.27864 1.87244
1 8.36904 9.15834 2.21587
1 7.67874 9.79681 2.50916
1 7.76274 -10.2676 3.19494
1 6.95916 -10.0264 2.79872
1 6.08355 -9.98278 2.53877
1 5.14453 -10.0579 2.62714
1 4.60224 -10.0016 3.45765
1 4.27829 -9.83749 4.41381
1 3.61177 -9.60758 3.83993
1 -8.97796 5.66224 -5.72748
1 -8.39847 5.992 -6.49556
1 -8.99046 5.28896 -6.86925
1 -8.10873 4.96022 -6.58294
1 -7.36215 5.40204 -6.22892
1 -6.89513 5.89998 -5.59433
1 -7.33596 6.67947 -5.32996
1 -7.63525 6.63525 -6.30034
1 -7.28427 7.40553 -6.69253
1 -6.37118 7.34287 -6.44417
1 -7.79864 4.64792 7.81932
1 -7.91493 5.44425 7.31144
1 -7.1067 5.88601 7.34596
1 -6.18075 5.83298 7.51597
1 -5.51941 5.52367 6.86782
1 -6.17579 4.80962 6.69844
1 -5.99189 4.27345 5.89298
1 -5.17736 4.70458 6.27057
1 -4.9494 4.53902 7.21159
1 -4.32503 5.12474 6.73531
1 7.6795 1.91041 -5.89465
1 8.19364 2.61467 -6.24461
1 8.49995 3.4732 -6.42054
1 9.21923 3.03358 -6.98132
1 9.98959 2.61713 -7.3648
1 9.55723 3.19285 -7.9762
1 10.3049 3.71031 -7.65763
1 10.1632 3.59948 -6.70309
1 9.40018 4.09944 -7.17592
1 8.87179 4.41635 -6.40316
1 6.16583 -7.15771 4.53557
1 5.97013 -8.07663 4.58714
1 6.6435 -8.3815 3.90886
1 7.56032 -8.17254 3.58193
1 8.01029 -7.63617 4.27628
1 7.18713 -7.20299 4.0359
1 6.38263 -7.25385 3.44613
1 6.69232 -7.20351 2.53362
1 6.90214 -6.29733 2.79886
1 6.34457 -5.67543 3.2535
1 -6.28976 -9.17233 2.21374
1 -5.60046 -9.67394 1.76107
1 -4.80636 -10.1199 1.31397
1 -4.42134 9.65809 1.46114
1 -4.32996 10.2963 2.19492
1 -3.42731 9.92874 2.00115
1 -3.011 -9.95039 1.7695
1 -3.7654 -10.0787 1.24505
1 -3.73427 -10.0476 0.291314
1 -3.38693 9.87445 0.636112
1 8.15243 -5.05435 7.93746
1 8.59718 -5.54506 8.65849
1 9.14157 -4.90038 8.26998
1 9.55429 -4.70975 9.16411
1 9.41762 -3.87347 9.57261
1 10.2897 -3.64143 9.14513
1 -9.70529 -4.168 8.88548
1 -9.93613 -3.57012 8.18266
1 -10.3355 -3.48958 7.31797
1 10.0642 -2.69407 7.68925
1 -9.0835 -0.251922 8.07186
1 -9.86537 0.170343 8.29909
1 -9.19713 0.624528 8.85357
1 -9.12511 1.42525 9.3495
1 -8.18336 1.32494 9.42869
1 -7.82528 0.503296 9.01927
1 -7.39265 0.672802 9.87402
1 -7.6848 1.26577 -10.1703
1 -8.20924 0.981073 -9.38709
1 -7.64053 1.68639 -9.09496
1 -9.21501 4.01965 -4.65751
1 -8.43349 3.68393 -5.09827
1 -7.48869 3.49439 -4.94181
1 -6.89415 2.97839 -4.35175
1 -6.30145 2.24756 -4.12436
1 -6.45762 1.7055 -4.86998
1 -5.81111 1.80818 -5.55591
1 -5.84518 2.56356 -5.01543
1 -6.39266 3.2266 -5.39417
1 -5.50709 3.42795 -5.70725
1 3.23048 5.36317 2.71362
1 2.76879 6.05743 3.16419
1 3.50024 6.45723 3.66196
1 3.77228 6.97208 2.94025
1 4.58416 7.50725 2.91697
1 4.62842 6.56953 3.12772
1 4.11826 5.74074 3.17157
1 4.29135 4.9601 3.63118
1 4.1624 4.62458 2.77124
1 3.81463 3.74669 2.76059
1 10.3368 9.15234 9.39581
1 10.3178 8.62237 10.226
1 9.39958 8.56163 -10.1846
1 8.85633 7.89326 10.0649
1 9.37681 7.09523 10.2892
1 9.27967 7.3594 -9.51174
1 9.75867 6.75358 -8.99117
1 -10.1108 7.11571 -8.88352
1 10.311 6.54803 -8.13726
1 -9.55423 6.18257 -8.35432
1 7.16416 8.7715 -8.52371
1 7.54386 8.22095 -9.1156
1 8.40523 8.19904 -9.62909
1 8.31732 8.95488 -9.07615
1 9.24998 8.91068 -9.02734
1 10.0941 9.15752 -9.33684
1 -10.1429 9.99668 -9.34193
1 -9.66174 -10.2739 -8.60111
1 -9.14347 9.70301 -9.00368
1 -8.55513 8.99329 -8.86014
1 4.00821 -3.3306 0.260155
1 3.98883 -2.88914 -0.581292
1 4.03472 -2.09428 -1.11777
1 4.9557 -2.25297 -1.29803
1 4.56786 -2.71421 -2.0135
1 4.27884 -3.57883 -1.73819
1 3.44492 -3.25469 -1.45396
1 2.86269 -3.92446 -1.00465
1 3.01147 -4.38281 -1.82213
1 3.07073 -5.15785 -2.36575
1 -3.81399 -6.05306 2.72759
1 -4.44815 -6.70006 3.04328
1 -4.90005 -5.8613 3.27689
1 -4.71349 -5.43313 4.09997
1 -4.03087 -5.34298 3.43531
1 -4.55246 -4.47905 3.45984
1 -4.60017 -3.73176 2.86397
1 -4.41014 -4.27248 2.08108
1 -4.31205 -5.19327 2.24193
1 -3.62474 -5.21958 1.63389
1 8.75012 3.66542 0.952588
1 8.3138 3.05465 1.61699
1 8.96078 2.59769 2.17801
1 9.41006 3.09059 1.47025
1 9.81739 3.54102 0.705646
1 -10.1864 3.75522 1.23498
1 -9.58502 3.77076 0.493006
1 -9.04236 4.04861 1.27531
1 -8.56369 3.85801 2.09095
1 -8.64428 4.77667 2.31856
1 6.22472 6.16045 -0.670194
1 5.318 5.78507 -0.393704
1 5.19055 5.4363 -1.26297
1 4.41658 5.12744 -0.659723
1 4.0389 4.41278 -0.0481714
1 3.98802 4.5811 0.89615
1 3.44522 3.77795 0.863618
1 2.80441 4.42242 0.61163
1 2.42638 3.71341 1.12569
1 2.65734 3.28646 0.269502
1 9.50313 8.47019 -8.12474
1 10.2656 8.52038 -8.65781
1 10.1785 7.71971 -8.14837
1 -9.99236 7.27376 -7.53124
1 -9.26549 7.35152 -8.2016
1 -8.48514 6.80777 -8.13687
1 -8.33191 7.74696 -7.97827
1 -8.4161 8.65133 -7.70628
1 -7.68597 8.87926 -8.19443
1 -7.18995 8.62562 -8.96726
1 7.7558 9.45693 -0.572556
1 7.76577 10.3355 -0.920005
1 6.89668 10.1399 -1.19379
1 7.21024 -10.2812 -2.04599
1 7.09071 -10.0266 -2.94245
1 7.07231 -9.90909 -3.92211
1 6.98538 9.8568 -3.87076
1 6.96999 9.18823 -3.16903
1 7.8872 9.20588 -3.23716
1 7.98845 8.39484 -3.83258
1 7.76209 4.32323 6.77392
1 7.03231 3.74514 7.02095
1 6.11948 3.81553 7.28685
1 6.219 2.87838 7.24187
1 6.4638 2.42252 6.46451
1 7.34482 2.00105 6.26928
1 7.01878 1.56021 5.47708
1 6.41919 0.807855 5.43516
1 6.23295 -0.0289588 5.84689
1 5.65605 0.411559 6.43107
1 -8.96037 8.62658 3.69902
1 -8.06354 8.47153 3.98812
1 -7.77699 9.28442 3.58052
1 -7.99672 10.1716 3.39715
1 -8.31616 -10.1907 2.53921
1 -8.14122 -9.61507 1.79118
1 -8.79952 -10.2219 1.42213
1 -8.14262 10.2713 0.804203
1 -7.39199 10.3399 1.46043
1 -8.04207 9.64645 1.62642
1 -2.24982 -9.3567 6.64084
1 -2.91668 -8.73652 6.98512
1 -2.17741 -8.14139 7.06949
1 -2.55834 -7.61551 6.35995
1 -3.50573 -7.77093 6.39759
1 -4.40949 -7.61574 6.43575
1 -5.17996 -8.09651 6.03793
1 -5.76407 -8.41047 5.41848
1 -6.27975 -8.93913 6.01418
1 -6.16444 -9.35511 5.17556
1 -4.19342 -8.47494 -0.636297
1 -4.57645 -8.67905 -1.51445
1 -4.02003 -9.52216 -1.72212
1 -3.39548 -10.0534 -1.195
1 -2.83803 9.89646 -1.08724
1 -2.56838 9.84661 -0.179428
1 -2.77731 8.91144 0.0750041
1 -1.96953 9.04929 -0.335055
1 -1.58666 9.6801 -0.953521
1 -0.888164 9.36638 -0.416874
1 -7.5067 2.30659 -3.63037
1 -7.05901 1.46891 -3.59757
1 -7.06776 0.570574 -3.91875
1 -6.39558 0.531274 -3.24683
1 -6.58777 -0.371908 -3.4939
1 -7.36233 -0.277503 -2.84976
1 -8.13342 0.216742 -2.6256
1 -7.99449 -0.403608 -1.83505
1 -7.43634 0.386319 -1.84951
1 -7.23877 0.790659 -2.69022
1 3.6522 3.7503 6.67842
1 3.32045 3.81167 5.79197
1 3.86204 3.04176 5.76746
1 2.9681 2.86267 5.38051
1 2.95487 2.78004 6.32422
1 3.17416 1.87962 5.98361
1 3.97429 1.93629 5.46697
1 4.34653 1.79392 6.34921
1 3.84316 2.43679 6.83288
1 3.77078 1.83027 7.57677
1 -5.1863 -10.1157 -1.68501
1 -5.01317 -9.36496 -2.25259
1 -4.4509 -10.0674 -2.70584
1 -4.2576 -9.19867 -3.12625
1 -3.38025 -9.13047 -2.72066
1 -3.12652 -8.29627 -2.96972
1 -3.71143 -7.74548 -2.43609
1 -4.14489 -8.55731 -2.35168
1 -4.21783 -8.11286 -3.21236
1 -4.99005 -8.00042 -2.60158
1 -1.5118 8.45463 9.6086
1 -1.49742 7.49537 9.38719
1 -1.76772 7.46808 8.43539
1 -1.69832 6.98982 7.61327
1 -0.738205 7.26999 7.57964
1 -0.754972 6.84756 6.73877
1 -1.09717 6.74151 5.8731
1 -1.93313 7.14326 6.24324
1 -1.20142 7.79466 6.50691
1 -0.444731 8.31203 6.82337
1 -2.07865 5.79816 4.2576
1 -1.69973 5.92617 3.42466
1 -1.8993 6.529 2.72596
1 -2.57393 6.75557 2.10102
1 -2.45641 7.53046 2.67331
1 -1.48008 7.53074 2.84339
1 -0.96921 7.15464 3.52273
1 -0.0263236 7.18948 3.33769
1 -0.00527857 8.17102 3.12192
1 -0.425151 8.7379 2.40655
1 -3.05095 -6.64717 -9.18146
1 -2.75645 -6.33262 -8.32889
1 -2.66882 -6.17602 -7.36655
1 -3.41616 -5.6091 -7.60234
1 -3.89041 -5.16428 -8.30616
1 -4.29002 -4.78297 -7.52659
1 -5.02082 -5.06318 -8.10546
1 -5.50443 -4.93037 -7.3164
1 -4.87011 -5.5098 -6.85597
1 -5.08445 -4.86328 -6.12744
1 1.66324 -4.36049 1.72196
1 1.44267 -3.4966 1.94905
1 0.638696 -3.84198 1.51577
1 0.898672 -2.97152 1.11698
1 1.73818 -2.48836 1.20869
1 1.93103 -3.30864 0.786618
1 1.22551 -3.89325 0.642739
1 1.38071 -3.25024 0.0159828
1 0.458894 -3.52992 -0.00661134
1 1.03977 -4.19802 -0.407778
1 -0.463966 -2.99855 6.14642
1 -0.272604 -2.49218 6.89257
1 -1.04105 -2.90663 7.26524
1 -1.00313 -2.03141 7.57019
1 -0.50195 -1.39485 8.09497
1 0.409341 -1.0937 8.3873
1 0.83507 -1.9413 8.5164
1 0.925295 -1.63714 7.61396
1 1.6106 -1.02813 7.41967
1 1.79853 -0.497355 6.67164
1 -7.52335 -1.15879 9.97744
1 -7.97675 -1.95924 9.89794
1 -8.60818 -2.58743 9.55213
1 -8.05878 -3.37086 9.89511
1 -8.74956 -3.71407 9.29724
1 -9.51643 -3.10935 9.39241
1 -9.02732 -3.21273 10.1882
1 -9.36936 -3.02601 -9.61699
1 -10.0534 -2.82423 -10.3034
1 -10.3578 -2.04201 9.96745
1 -6.18903 1.62268 2.96237
1 -6.43659 2.25425 3.62283
1 -6.97024 2.81756 4.23242
1 -7.5923 3.57231 4.03951
1 -6.65803 3.82408 4.06144
1 -6.94902 4.23093 3.25458
1 -6.99646 4.84224 3.96067
1 -7.40943 4.43952 4.75829
1 -7.96667 5.23361 4.67882
1 -8.0847 4.75919 3.8493
1 9.64976 -8.97526 5.33025
1 -10.1064 -9.13066 5.45525
1 -10.0762 -10.0417 5.76346
1 9.99757 -10.0133 5.01817
1 10.1519 -10.294 4.09461
1 -10.2314 10.1429 3.22515
1 9.57141 10.2799 3.18697
1 8.94066 9.57593 3.0847
1 9.33103 8.95671 3.7719
1 9.93033 9.01289 3.03286
1 2.70868 6.69671 -0.566502
1 3.27894 5.99155 -0.365063
1 3.31562 5.40902 0.422628
1 4.2047 5.77123 0.187757
1 4.95083 5.11849 0.353539
1 5.18367 4.48676 -0.25886
1 5.972 4.76534 -0.700349
1 6.03981 4.85945 -1.62114
1 6.44361 4.02469 -1.63961
1 6.76161 4.10998 -0.685222
1 4.14608 8.64055 3.80166
1 4.08993 8.95896 4.66588
1 4.46115 9.18103 5.557
1 4.14692 10.0545 5.81542
1 3.31565 9.67608 5.56772
1 3.58819 9.94266 4.69727
1 3.44345 -9.91929 5.10154
1 3.05412 -9.24505 5.62891
1 2.65012 -8.77807 4.89687
1 1.77182 -8.61957 5.20689
1 -9.10001 -7.46878 -4.17112
1 -8.55648 -8.23057 -4.38008
1 -8.34373 -8.00927 -3.52075
1 -8.36509 -8.93826 -3.30762
1 -7.73054 -9.64559 -3.59197
1 -7.38211 -10.1363 -4.37709
1 -7.8696 9.78439 -4.16699
1 -8.21089 8.90638 -3.91424
1 -8.20247 8.31266 -4.64422
1 -8.31274 9.26626 -4.93298
1 1.74738 -2.24645 9.6652
1 1.76108 -2.4299 8.77654
1 2.43174 -2.75551 8.17926
1 2.48283 -3.5858 8.69328
1 2.53619 -3.69247 7.7413
1 3.34336 -4.22174 7.50486
1 4.09461 -3.8573 6.98954
1 4.48668 -3.07597 6.69088
1 3.65374 -2.63351 6.43699
1 2.81073 -2.8426 6.83531
1 1.71095 -1.36073 4.83576
1 1.6122 -2.32513 4.64177
1 1.239 -2.46257 5.4961
1 1.88355 -1.87581 5.85873
1 2.32569 -2.49297 5.28014
1 2.0782 -3.39695 5.17962
1 1.67278 -3.67813 6.0332
1 2.1841 -4.44652 5.89175
1 1.69793 -4.38524 4.99279
1 1.78722 -5.25562 5.23935
1 4.55413 -7.35833 2.98403
1 5.51705 -7.46666 2.80753
1 4.92957 -7.62983 2.03413
1 5.15137 -7.51848 1.07201
1 4.87706 -7.91792 0.292529
1 4.84067 -7.4267 -0.513232
1 5.46159 -8.01354 -0.844458
1 6.04669 -7.78657 -0.106671
1 6.37192 -8.55998 -0.540553
1 7.01936 -8.37464 -1.29706
1 -6.22345 3.07689 -8.39404
1 -5.67944 3.81847 -8.30296
1 -5.30372 4.78926 -8.16827
1 -6.16282 4.77791 -8.58774
1 -6.11779 5.24012 -7.76644
1 -6.75088 5.23385 -7.04174
1 -7.46483 5.86909 -7.26118
1 -7.64089 6.75215 -7.51989
1 -8.3858 7.02162 -6.95214
1 -8.02632 7.94013 -7.03846
1 6.57647 -8.52163 -6.71381
1 7.33394 -8.61178 -6.17197
1 7.16782 -9.545 -6.216
1 7.69887 -10.287 -6.64783
1 7.31813 10.2376 -7.58804
1 7.18892 -9.53492 -7.47749
1 6.42499 -9.89702 -7.05702
1 6.01133 -9.13491 -7.41414
1 5.83119 -8.2239 -7.50318
1 6.7484 -8.54376 -7.7835
1 -7.34989 -1.11576 -4.12782
1 -6.99276 -0.676401 -4.88182
1 -7.85431 -0.924332 -5.15709
1 -8.33463 -1.70615 -4.94275
1 -9.11399 -1.90468 -5.42548
1 -9.30253 -2.37853 -4.59547
1 -10.1967 -2.46713 -4.37486
1 10.2397 -3.20424 -4.90633
1 9.60124 -2.46827 -5.16764
1 -10.2188 -2.20737 -5.42532
1 -4.69589 -7.03901 -4.51595
1 -3.84503 -6.71065 -4.25735
1 -3.75343 -7.62564 -4.08377
1 -2.80498 -7.71603 -4.02011
1 -2.68972 -8.59245 -3.79273
1 -3.2716 -8.49027 -4.52733
1 -4.1785 -8.64612 -4.17813
1 -3.57068 -9.37371 -3.96854
1 -4.16173 -10.1556 -4.06175
1 -3.76204 10.0902 -3.36031
1 -3.61408 9.88926 -0.409042
1 -4.44509 10.2444 -0.657116
1 -4.10238 -9.5791 -0.631794
1 -5.00007 -9.3697 -0.98767