8000
Atoms. Timestep: 3300000
1 -8.44739 5.19547 -3.65535
1 -8.84364 4.99647 -4.45651
1 -8.92356 4.12119 -3.91526
1 -8.50154 3.91838 -3.06385
1 -8.61978 4.46824 -2.30684
1 -9.56686 4.59304 -2.28261
1 -9.49916 4.81625 -3.20686
1 -9.21258 5.59862 -2.75686
1 -8.58408 6.29061 -2.79537
1 -9.49282 6.62128 -2.74587
1 -4.33736 -3.04355 -10.1478
1 -4.16535 -3.89645 -10.585
1 -4.72519 -4.03887 -9.86694
1 -5.31462 -4.49253 -10.4413
1 -6.10178 -4.74072 10.4507
1 -5.69129 -5.50326 10.188
1 -5.15507 -5.8873 -10.5173
1 -4.99246 -6.09012 -9.62045
1 -4.2493 -5.51053 -9.27589
1 -3.27749 -5.38626 -9.12457
1 7.00875 9.55361 -0.653403
1 7.98846 9.59967 -0.55363
1 8.94935 9.56517 -0.37256
1 8.6518 8.93568 -1.08293
1 8.51679 8.67236 -1.9909
1 8.66756 9.50712 -2.51667
1 8.36366 9.94416 -3.32625
1 7.88799 10.2063 -4.16652
1 6.97791 9.98266 -4.25675
1 7.16888 -10.553 -3.87508
1 10.4653 -9.60777 2.21218
1 10.4608 -8.85912 2.88759
1 10.6324 -8.54278 1.96668
1 -9.92968 -8.28351 1.99645
1 -9.09889 -8.68244 2.23018
1 -8.57773 -9.38359 2.61349
1 -9.0294 -9.95644 2.0512
1 -8.20187 -10.2696 1.94343
1 -7.5432 10.5411 2.16528
1 -6.94314 -10.1254 2.17409
1 -7.67956 9.56949 2.67948
1 -8.41438 9.39938 2.14543
1 -8.81718 10.1498 2.52961
1 -9.18502 10.2569 3.42332
1 -9.86301 10.0419 2.7889
1 -9.43825 9.40196 2.1904
1 -9.1023 9.03729 3.08255
1 -10.1047 8.99409 3.13804
1 -9.76378 8.11592 2.99186
1 -10.589 7.78411 2.64273
1 -8.39002 1.01029 -9.87251
1 -8.67435 0.836403 -8.9111
1 -8.1688 0.102505 -9.39773
1 -8.83867 -0.213006 -10.0517
1 -9.30866 0.0269223 -9.28197
1 -8.88393 -0.595094 -8.74089
1 -9.77098 -0.638992 -8.3478
1 -9.88899 -1.4105 -7.8108
1 -9.03659 -1.57904 -8.31568
1 -9.9094 -1.76983 -8.7959
1 6.2296 2.96062 6.33706
1 5.6442 3.29683 5.64191
1 5.99699 2.97144 4.77498
1 6.896 2.69219 4.4381
1 6.90002 1.75249 4.61485
1 5.98819 1.97687 4.57196
1 6.14951 1.58753 3.70313
1 6.1545 0.9538 4.55831
1 5.35178 0.330883 4.36554
1 5.63473 0.783943 3.5102
1 4.77577 7.08192 -1.61244
1 5.27518 7.73035 -2.04146
1 5.49143 8.28414 -2.80715
1 5.95159 7.51259 -2.96784
1 6.80525 7.12855 -2.92334
1 6.85054 7.99451 -3.29986
1 7.43505 8.69451 -3.62979
1 7.10691 8.9232 -4.56296
1 7.26851 8.88356 -5.50656
1 6.90492 9.10751 -6.45227
1 -8.67153 -9.90394 8.22712
1 -8.00842 -9.33207 8.79418
1 -8.64129 -8.95791 9.41606
1 -9.05399 -9.4276 10.2019
1 -8.13333 -9.12855 10.2913
1 -7.42131 -9.29674 9.72554
1 -7.69463 -10.092 9.30165
1 -8.61235 -10.0362 9.54833
1 -8.07474 -10.0838 10.3305
1 -8.72614 10.6811 10.5672
1 4.85404 9.2521 -5.60489
1 4.67782 8.44097 -5.21414
1 3.96623 7.82734 -5.16559
1 4.04803 8.19384 -6.10484
1 4.11385 7.26394 -6.13379
1 3.15367 7.55157 -5.85446
1 2.76949 7.47669 -4.96517
1 2.52469 7.12649 -4.07548
1 1.91195 7.78615 -3.70987
1 1.98953 8.46479 -4.38845
1 2.30168 9.42085 -6.25583
1 1.62041 9.94493 -6.60893
1 2.43675 10.3266 -6.90205
1 3.40057 10.4221 -6.5977
1 3.24664 9.47379 -6.97732
1 3.92736 9.22597 -6.37746
1 4.78836 8.85021 -6.57842
1 5.55086 9.09555 -7.17259
1 6.3098 8.56402 -7.31447
1 5.51525 8.11578 -7.66901
1 8.0143 -6.56381 -2.75843
1 7.36826 -6.91571 -3.35912
1 7.78576 -6.39934 -4.05627
1 7.84029 -7.05338 -4.81422
1 8.80221 -7.14304 -4.6305
1 9.06576 -7.09669 -5.5789
1 9.0589 -7.27837 -6.54496
1 8.16195 -7.25865 -6.34113
1 8.15367 -7.90872 -5.6275
1 7.37201 -8.28384 -6.00996
1 6.57394 -2.82163 -8.41782
1 6.12514 -2.26602 -8.97736
1 6.28144 -1.74044 -8.22489
1 6.50772 -0.904534 -7.86637
1 5.66884 -1.33836 -7.498
1 5.28597 -2.02091 -8.09685
1 4.63459 -2.28231 -7.41726
1 4.02284 -2.43089 -6.75899
1 3.06235 -2.43246 -6.80245
1 3.68262 -2.75349 -7.5902
1 -7.49171 4.29455 -2.02198
1 -6.86516 4.88147 -2.42469
1 -6.7575 5.23022 -1.51879
1 -6.93064 6.14536 -1.50503
1 -7.75938 5.93745 -1.86714
1 -7.9203 5.39003 -2.72142
1 -7.69853 4.55967 -3.09868
1 -6.78982 4.48229 -3.32395
1 -6.98106 4.30524 -4.2305
1 -6.96319 4.15238 -5.15342
1 9.04347 -7.84235 6.33987
1 9.49128 -7.82585 5.49824
1 10.0624 -8.60988 5.50272
1 10.2774 -8.33458 6.42922
1 10.5417 -7.61677 5.81547
1 -10.5356 -7.59684 4.85467
1 10.3591 -7.13719 4.20559
1 9.98733 -6.99921 5.07789
1 9.39484 -7.51411 4.43163
1 8.88482 -6.71845 4.38861
1 1.43558 9.62952 -4.57151
1 1.39961 10.4238 -4.13452
1 1.74342 -10.4525 -3.42496
1 1.33699 10.3752 -2.76933
1 1.97023 9.86175 -3.29524
1 2.37599 9.28241 -3.87948
1 2.60358 8.50941 -3.31474
1 2.86373 8.26846 -2.45487
1 2.27744 9.06478 -2.61817
1 2.94586 9.56152 -3.07743
1 -6.6754 -3.89531 7.95532
1 -6.67035 -4.7657 8.38171
1 -7.12598 -5.61394 8.06447
1 -6.57952 -6.16948 7.42575
1 -6.54212 -6.46999 6.56725
1 -6.20921 -7.40328 6.43102
1 -5.79122 -8.23406 6.12254
1 -6.39886 -7.83306 5.46563
1 -6.84977 -7.78667 4.59196
1 -7.39523 -7.0345 4.76486
1 7.94894 -3.82603 2.56054
1 7.66398 -4.2432 1.79631
1 7.89858 -3.41767 1.48207
1 8.73742 -3.05181 1.72622
1 9.61793 -3.34037 1.7845
1 10.2293 -3.55509 0.984038
1 10.3566 -3.70596 0.0426467
1 9.68012 -4.36723 -0.0600679
1 9.38129 -4.40876 0.806467
1 8.39039 -4.53711 0.747387
1 -8.48794 1.9584 8.80286
1 -7.63167 1.75896 8.43515
1 -7.13048 2.02096 7.66205
1 -7.94521 2.47893 7.72765
1 -7.49728 3.08972 7.08971
1 -7.9212 3.88281 6.80847
1 -7.23062 4.51024 6.89918
1 -6.81102 3.81221 7.43503
1 -6.79161 3.13571 8.08243
1 -5.83392 3.18296 7.87133
1 0.927801 8.65207 -9.44786
1 1.17366 9.55581 -9.33303
1 0.537077 10.106 -9.77031
1 0.738421 10.1091 10.696
1 1.15764 -10.6187 -10.2146
1 1.8463 10.3702 -10.6366
1 1.34288 10.4301 9.94877
1 0.602665 10.3994 9.23963
1 1.51577 10.5734 8.8484
1 0.967675 -10.5807 8.10908
1 3.05865 0.0108015 -7.79718
1 3.05636 0.312236 -6.87427
1 2.34136 -0.313997 -6.71246
1 1.54073 -0.519639 -6.19416
1 2.02695 -0.556256 -5.42748
1 2.74129 -0.836658 -4.9078
1 2.78847 -1.52479 -4.26501
1 2.95615 -0.908084 -3.57978
1 3.46075 -0.0760045 -3.56272
1 3.87751 -0.468948 -2.78578
1 8.68109 3.2288 -4.55573
1 8.29897 2.589 -4.01787
1 7.95004 1.76338 -4.14309
1 8.17831 1.07917 -3.52204
1 7.28086 1.10006 -3.8231
1 7.07557 0.222219 -3.49575
1 7.77982 0.199481 -4.11115
1 8.63774 -0.0284868 -3.8413
1 8.25917 0.192235 -2.9722
1 8.6926 0.989069 -2.67133
1 3.38313 3.33881 4.21729
1 4.1156 2.9758 3.74178
1 3.24882 2.69933 3.25693
1 2.5154 3.32424 3.46241
1 3.01143 4.14985 3.55885
1 2.51605 4.74054 3.05484
1 1.95005 4.63273 2.33519
1 1.58097 3.98555 2.98823
1 0.94249 4.56182 2.6537
1 0.340691 5.13486 3.13894
1 -1.91954 -3.84519 7.54948
1 -1.79121 -4.64101 8.17169
1 -0.854251 -4.57794 8.43953
1 -0.000131496 -4.413 8.15484
1 0.436593 -4.41977 7.23222
1 0.993226 -5.04587 7.77389
1 1.54223 -4.61812 8.53462
1 0.667793 -4.42346 8.91301
1 0.818159 -3.5511 8.51656
1 1.14966 -2.77651 8.03631
1 -2.78395 -6.99741 -8.06236
1 -2.83415 -6.23348 -7.47996
1 -3.50967 -6.20571 -8.15218
1 -3.86432 -7.09438 -8.02396
1 -3.99827 -6.65828 -7.16969
1 -3.2079 -7.03258 -6.9375
1 -2.93658 -7.5737 -6.15766
1 -3.26709 -7.53916 -5.26952
1 -2.90204 -8.41395 -5.13184
1 -3.74732 -8.37335 -5.6478
1 -3.11823 1.74068 -5.72943
1 -2.95143 2.05841 -6.5829
1 -2.11948 2.52197 -6.72787
1 -1.67039 2.9836 -6.07081
1 -1.07603 2.71644 -6.83468
1 -0.334759 3.33699 -7.09318
1 0.385021 3.79501 -6.78499
1 -0.249907 4.5316 -7.05188
1 0.153589 4.3779 -7.94304
1 0.956271 4.84186 -8.13914
1 -1.62744 -9.19717 -0.363792
1 -1.59147 -8.32844 -0.0135652
1 -1.24497 -8.10793 -0.883358
1 -2.25125 -8.3028 -1.0541
1 -2.41019 -7.43673 -1.52714
1 -3.27875 -7.75246 -1.85207
1 -3.27198 -6.90103 -1.27186
1 -4.08743 -7.28652 -1.4807
1 -4.07474 -8.0726 -1.03398
1 -4.07999 -8.861 -1.47804
1 8.47051 -1.09576 -6.50335
1 7.54934 -1.17673 -6.21728
1 7.79714 -0.628895 -5.48069
1 8.21678 -1.5283 -5.38795
1 8.56467 -2.27018 -4.86701
1 8.63124 -2.48923 -3.89515
1 9.18002 -1.79166 -3.4832
1 8.55036 -1.46401 -4.09654
1 7.69894 -1.57268 -4.43454
1 7.65231 -2.52863 -4.46424
1 1.775 -9.37142 -3.77645
1 1.32259 -9.30743 -4.58429
1 0.563517 -9.33976 -5.10552
1 0.738966 -9.93341 -5.84181
1 0.946812 -9.39349 -6.56103
1 0.3293 -8.91454 -6.03845
1 -0.537766 -8.79201 -6.34478
1 -0.150136 -9.56289 -6.69569
1 -0.969928 -9.92041 -6.97516
1 -1.69603 -10.1245 -6.33825
1 -6.47268 4.10355 1.87632
1 -5.94779 4.64648 2.43459
1 -6.19618 5.09207 1.60976
1 -5.4636 4.4294 1.46943
1 -5.81147 3.99041 0.654898
1 -5.97588 4.97349 0.370513
1 -5.17105 5.26535 0.839239
1 -4.75773 4.42698 0.539256
1 -5.14724 4.03292 -0.221129
1 -4.38286 4.59671 -0.504938
1 -6.93107 -0.67048 9.11496
1 -7.65977 -1.11895 9.58886
1 -7.47741 -0.76939 10.4028
1 -8.35767 -0.446789 10.1037
1 -7.66521 -0.0651776 9.55712
1 -8.04568 -0.456565 8.77504
1 -8.84504 0.0260009 9.18861
1 -9.20637 0.854079 8.78364
1 -9.81203 1.291 8.1315
1 -9.44245 1.00681 7.2896
1 -1.42508 -5.08841 -5.77025
1 -1.01099 -4.84967 -6.55046
1 -1.47826 -4.73263 -7.38337
1 -0.662787 -4.24896 -7.58251
1 -0.503523 -4.03342 -6.67722
1 0.287503 -3.68201 -7.08732
1 0.27619 -4.55605 -7.59955
1 0.845314 -3.93382 -8.16473
1 0.451406 -4.50836 -8.85816
1 -0.398606 -4.83222 -8.50762
1 -2.18845 -0.791121 -10.7101
1 -2.10355 -1.17012 9.84099
1 -2.43656 -1.7674 10.4946
1 -2.41346 -2.77879 -10.5898
1 -2.49367 -3.29546 -9.76279
1 -3.38556 -3.51766 -9.91709
1 -3.33468 -2.58036 -9.71055
1 -3.34063 -2.37073 -10.6095
1 -4.06577 -2.87994 10.3505
1 -4.25905 -2.07329 9.95313
1 7.79613 -5.69595 -0.723982
1 7.44718 -6.34597 -0.193955
1 7.30123 -7.16766 -0.681778
1 6.67052 -6.64138 -1.225
1 6.59466 -6.84885 -2.20595
1 7.44925 -7.30261 -2.0963
1 7.01128 -7.93887 -2.64677
1 6.0579 -8.15887 -2.95784
1 6.47832 -7.55194 -3.54207
1 6.47504 -7.57842 -4.56977
1 5.3683 -8.41027 -7.57914
1 4.73467 -8.96112 -8.09188
1 4.4765 -8.871 -7.20259
1 5.09581 -8.75764 -6.50273
1 4.20012 -8.73028 -6.06602
1 4.45761 -7.88058 -5.68339
1 3.65978 -7.81371 -5.16383
1 2.86527 -8.0421 -5.68967
1 3.17017 -7.29429 -6.19901
1 2.3569 -7.13917 -5.81088
1 -4.84991 5.22061 -5.06537
1 -5.17374 5.71995 -4.31575
1 -5.77507 4.91322 -4.45682
1 -5.96111 4.61325 -5.30048
1 -5.0706 4.21594 -5.15307
1 -5.33752 3.77789 -5.98008
1 -4.45941 3.67863 -6.46033
1 -3.88479 3.82548 -7.23854
1 -3.81765 4.68429 -6.8453
1 -3.38108 3.981 -6.296
1 -1.72956 1.63129 7.64638
1 -2.64404 1.9269 7.85671
1 -3.26228 2.23163 7.17208
1 -4.06008 2.3308 6.65798
1 -4.85268 2.5413 7.14045
1 -4.97055 1.61613 6.91495
1 -5.25527 1.90913 5.99089
1 -4.57759 2.48236 5.4341
1 -5.0755 2.63725 4.67342
1 -4.70455 1.8194 4.53478
1 -5.56963 -8.23765 7.27215
1 -6.28 -8.23343 7.85167
1 -5.50833 -8.47417 8.36136
1 -5.53923 -9.25811 9.00002
1 -4.91826 -9.99083 9.1651
1 -5.10028 -10.4305 10.0018
1 -4.59237 10.2288 9.71026
1 -3.73431 10.2495 10.0636
1 -4.13364 -10.2874 10.2447
1 -4.63952 -9.4684 10.1484
1 -6.56398 -3.14477 -7.81304
1 -6.62245 -2.26928 -7.36072
1 -6.97469 -2.03399 -8.30239
1 -7.76859 -2.05587 -7.83046
1 -7.76802 -3.08887 -7.68294
1 -8.74122 -3.31203 -7.78329
1 -8.62618 -3.07379 -6.8849
1 -9.42499 -3.58978 -6.97645
1 -9.99724 -3.04772 -6.40739
1 -9.25661 -2.84979 -5.93301
1 -7.86126 10.554 -3.55194
1 -8.53668 9.92052 -3.87023
1 -8.07248 9.58923 -3.12685
1 -7.56889 9.18108 -2.33922
1 -8.08214 9.37159 -1.55831
1 -8.16296 8.4142 -1.49521
1 -8.4302 8.31751 -2.4309
1 -7.8295 7.82059 -3.0474
1 -7.42167 8.65478 -3.33094
1 -6.66095 8.14028 -3.75947
1 1.49598 6.63479 4.96647
1 1.58907 6.17464 4.10242
1 1.55896 6.73424 3.35707
1 1.93452 7.61944 3.28657
1 1.33488 7.42691 2.53496
1 0.915917 6.50511 2.47489
1 1.22761 5.57057 2.49899
1 1.4408 5.47074 1.62245
1 1.9052 4.62612 1.36052
1 0.956109 4.58265 1.58844
1 -1.11172 10.5264 5.12266
1 -0.869071 9.89682 5.85307
1 -1.35131 10.066 6.64142
1 -1.1993 -10.5854 6.04049
1 -0.444557 -10.6005 6.53672
1 -1.28038 -10.303 7.09173
1 -1.88991 10.5134 7.47471
1 -1.85637 -10.1396 8.00438
1 -1.5196 -9.37655 7.62469
1 -1.99951 -8.50642 7.67251
1 -9.96903 9.90922 4.16015
1 -9.50683 9.48495 4.91524
1 -8.82259 9.3993 4.26513
1 -8.58193 10.2636 4.32133
1 -7.74706 9.96522 4.62849
1 -7.99189 9.48032 3.81194
1 -7.61695 8.66926 3.53189
1 -7.44249 8.26467 2.58911
1 -6.66677 8.57459 2.23919
1 -5.81687 8.36899 2.57463
1 8.1385 3.58377 -9.29499
1 8.67636 3.32233 -8.54531
1 9.07611 2.7222 -7.86982
1 9.64427 2.57321 -7.0779
1 9.85716 3.02353 -6.28073
1 10.0937 3.47711 -7.06839
1 10.5379 4.04655 -7.60181
1 -10.2946 4.69483 -7.29113
1 10.6188 5.38295 -6.85502
1 10.0505 5.67947 -6.06886
1 3.2168 10.3875 7.07557
1 2.47769 -10.4915 6.82462
1 2.58699 -9.62468 7.2242
1 3.47356 -9.9254 7.24234
1 3.58387 -9.03799 7.06226
1 3.26741 -8.36988 6.41638
1 2.92634 -7.61381 5.93539
1 2.12382 -8.24862 5.83059
1 2.35305 -8.54226 6.72621
1 1.50335 -9.03207 6.61576
1 -7.94002 -1.20263 6.69526
1 -7.30568 -1.18444 7.38537
1 -7.332 -1.22955 8.35868
1 -6.45234 -1.4827 8.0053
1 -6.10641 -1.94923 8.75077
1 -6.76669 -1.58078 9.3129
1 -6.47865 -2.5779 9.38689
1 -7.22024 -2.3384 8.83923
1 -6.78768 -2.83516 8.15228
1 -5.92477 -2.90936 8.52344
1 2.56774 -6.43119 7.40243
1 3.55097 -6.6027 7.51653
1 3.77449 -7.40695 6.85463
1 2.82942 -7.67604 6.98401
1 3.05643 -8.25904 7.68359
1 3.05363 -8.46709 8.61932
1 2.8375 -9.1594 9.29211
1 3.19571 -9.04094 10.1444
1 2.55993 -9.01305 -10.6212
1 2.72112 -8.00564 10.6489
1 1.50138 -9.17019 -0.897932
1 1.91893 -8.5315 -0.15736
1 2.69655 -8.68744 -0.782343
1 2.50266 -9.66444 -0.611517
1 2.11022 -10.5125 -0.432368
1 2.94774 10.6912 -0.0224372
1 2.53083 10.5116 0.865089
1 3.32144 10.6051 1.2833
1 4.03546 -10.4902 0.660046
1 3.8079 9.97956 0.541722
1 -4.21345 10.4702 2.55341
1 -4.79707 10.0814 1.91423
1 -4.93364 10.1426 0.947388
1 -4.94184 10.217 0.0125214
1 -5.55212 -10.4265 0.228243
1 -4.78122 -9.94895 0.549413
1 -4.07912 -10.6062 0.373485
1 -3.15933 -10.5665 0.532585
1 -3.37196 -10.0421 1.39291
1 -3.91362 -9.52279 0.854426
1 3.33499 3.46543 -1.70446
1 2.53321 3.05102 -2.12465
1 2.00127 3.23326 -2.96936
1 2.98519 3.3147 -2.9659
1 3.87601 3.47434 -3.24881
1 4.11835 3.60232 -2.31514
1 4.85079 4.03536 -2.82061
1 5.84819 4.11436 -2.72642
1 6.21467 5.04037 -2.6321
1 6.98436 5.46229 -2.20006
1 9.92579 9.16879 -7.63153
1 10.283 9.18041 -8.49231
1 9.60379 9.33188 -9.18929
1 9.8995 10.1232 -8.58124
1 9.83654 10.3648 -7.58716
1 -10.6436 10.1182 -7.61002
1 -10.0288 -10.7044 -7.33666
1 10.585 -10.3825 -6.90765
1 -10.193 -9.66959 -6.54398
1 -10.1789 -8.75171 -6.81962
1 -3.06887 0.815372 -10.2645
1 -3.26472 1.7419 -10.4795
1 -3.22484 1.17041 10.1398
1 -2.4301 1.08601 9.62569
1 -2.34672 0.14374 9.70978
1 -2.00295 0.271394 10.6228
1 -2.02488 0.877347 -10.0979
1 -1.71825 0.635952 -9.16749
1 -2.03478 -0.267519 -9.12115
1 -2.58002 0.476212 -8.71067
1 3.15583 4.83167 -7.59746
1 3.83673 5.43214 -7.96041
1 4.50992 4.79327 -8.24568
1 3.80394 4.20652 -8.12904
1 3.72721 3.29989 -8.39756
1 3.61951 3.90667 -9.12789
1 4.57788 4.0913 -9.04384
1 4.54683 3.11484 -9.0327
1 4.84506 2.14684 -9.08699
1 4.8353 1.18705 -9.1217
1 -7.36813 -4.96285 -1.35908
1 -7.82308 -4.13721 -1.62751
1 -8.22246 -3.27924 -1.2436
1 -8.99899 -2.75019 -1.4809
1 -8.5346 -2.25397 -0.801201
1 -7.97955 -1.92887 -1.49131
1 -8.55806 -1.16305 -1.25317
1 -9.4157 -1.31223 -0.873838
1 -9.43541 -0.472391 -1.29281
1 -8.65039 0.0540984 -1.43716
1 9.47041 -5.79097 -1.46644
1 9.9988 -5.05717 -1.0595
1 10.5649 -5.79982 -1.13575
1 -10.0291 -5.30245 -0.920863
1 -9.27293 -5.93471 -0.949286
1 -9.12243 -5.07725 -1.48103
1 -8.46209 -4.59288 -0.91452
1 -8.23291 -5.29459 -0.283565
1 -7.62393 -4.54352 -0.442147
1 -7.6618 -4.00296 0.32741
1 6.09189 -3.82209 -8.37878
1 5.4174 -3.1149 -8.33563
1 4.53518 -3.28221 -7.97257
1 4.36019 -3.65738 -7.08984
1 5.14883 -4.12171 -7.29804
1 5.61457 -4.5881 -7.97442
1 6.1331 -4.19679 -7.25541
1 6.57996 -3.36667 -7.46342
1 5.81408 -3.2848 -6.89998
1 6.61633 -3.05866 -6.34495
1 5.49917 1.30648 8.5908
1 6.30749 0.765773 8.89626
1 6.52668 0.524338 9.84471
1 7.24833 0.828889 9.38369
1 6.99097 -0.0462487 9.12442
1 6.5274 -0.564949 8.52852
1 5.63854 -0.556004 8.80919
1 4.9673 -0.666435 9.47096
1 5.07122 -1.17082 10.3664
1 4.47715 -0.549635 -10.6299
1 -8.65479 1.75032 -3.37149
1 -8.39223 0.821471 -3.2458
1 -8.92973 0.9495 -2.49216
1 -9.45193 0.16367 -2.86497
1 -9.29734 0.901616 -3.40362
1 -8.86217 0.881195 -4.29388
1 -8.69418 0.0616388 -3.81037
1 -9.09783 -0.393848 -4.52878
1 -9.77579 -0.158526 -5.09967
1 -10.1177 -0.489578 -4.2893
1 -1.1358 -4.16141 -5.36325
1 -0.352514 -4.68174 -5.59196
1 0.0187773 -4.13723 -4.92519
1 -0.766544 -3.58362 -4.53191
1 -1.77325 -3.59248 -4.84575
1 -2.36448 -3.58876 -4.13258
1 -2.47051 -2.64888 -4.05935
1 -2.04281 -2.51214 -4.91495
1 -1.16941 -2.76951 -4.71489
1 -1.05166 -2.60701 -3.7592
1 -5.11487 -10.1125 -2.17976
1 -4.33483 -9.86635 -1.71077
1 -3.37041 -9.72183 -1.79041
1 -3.02201 -10.1554 -2.58919
1 -3.6559 -9.40653 -2.79039
1 -2.89838 -9.40045 -3.44873
1 -2.49384 -8.57664 -3.38301
1 -3.12288 -8.6132 -4.09264
1 -3.8626 -8.8441 -4.71284
1 -3.9172 -7.96276 -4.39711
1 9.00522 10.6676 1.32828
1 8.05961 -10.4391 1.42122
1 7.1105 -10.3374 1.25628
1 7.15217 -9.38041 1.08863
1 7.90382 -8.76559 1.06014
1 8.5004 -8.72972 1.76632
1 8.84208 -8.02129 1.14725
1 8.03433 -7.62838 1.45694
1 8.38834 -6.91619 0.779031
1 7.77474 -7.60454 0.409064
1 8.87628 3.1182 3.01836
1 8.63171 2.52333 3.70146
1 7.96489 2.28587 4.38927
1 7.63153 2.65373 3.49077
1 7.92734 1.94061 2.88944
1 7.79978 2.5233 2.16494
1 6.87088 2.4853 2.02214
1 6.51345 3.10696 1.43048
1 5.5319 3.01759 1.57119
1 5.82356 3.09025 0.66511
1 10.0384 9.37304 -10.4528
1 -10.6287 8.88254 -10.4221
1 -10.0361 9.52418 -10.6459
1 -9.32584 10.0935 -10.2174
1 -9.12052 -10.4034 -9.96391
1 -8.60408 -10.5913 -9.09823
1 -8.54535 10.2155 -8.44534
1 -8.75613 9.69145 -9.17332
1 -7.81853 9.81178 -9.2206
1 -7.98943 9.10879 -8.50578
1 -0.997801 6.0691 -3.31557
1 -1.26266 6.55137 -4.11901
1 -0.549174 5.8771 -4.35291
1 -0.500159 5.87301 -5.31138
1 -0.753854 6.72841 -5.57193
1 -0.650331 7.3317 -4.87446
1 -0.576787 7.65234 -4.00225
1 -0.161218 6.89048 -3.62425
1 0.231001 7.60615 -3.13138
1 0.589521 7.7456 -3.99488
1 2.37345 5.55851 2.00895
1 1.96569 6.48682 2.11439
1 1.93641 7.35331 1.72565
1 2.57066 7.87869 1.23437
1 3.09022 7.30149 1.87847
1 2.98657 6.41472 1.70661
1 3.82139 6.30884 2.15936
1 4.3635 6.11022 2.93262
1 4.96747 5.43934 2.54407
1 4.55501 4.65473 2.97198
1 0.60601 -8.9182 -3.87659
1 -0.295007 -8.84139 -4.01204
1 -0.120987 -8.89693 -3.10827
1 -0.920522 -9.38686 -3.30728
1 -1.51727 -8.68243 -3.69736
1 -1.79804 -7.73163 -3.81379
1 -2.5281 -7.09358 -3.65008
1 -2.03086 -6.35876 -3.40065
1 -2.86372 -5.95185 -3.1717
1 -2.47659 -5.51553 -2.38003
1 3.57163 0.847198 6.15048
1 2.91557 0.490965 5.51241
1 2.4448 -0.262032 5.17435
1 1.67609 -0.162072 5.72816
1 2.04073 -0.999069 6.07702
1 2.95264 -1.02409 6.06262
1 2.64108 -1.89391 6.37851
1 1.92611 -2.02405 6.942
1 2.11272 -1.23105 7.39293
1 2.59275 -2.03886 7.76383
1 5.78966 -2.77466 7.68035
1 5.32303 -2.84972 8.50304
1 5.25729 -3.65398 7.9157
1 5.02507 -3.78426 7.05114
1 5.3812 -4.71913 7.16922
1 6.26224 -4.77785 6.81731
1 6.46534 -5.36591 5.99905
1 6.66685 -4.32859 5.95477
1 6.01427 -4.51481 5.29708
1 6.32094 -3.64837 5.19846
1 -7.68636 9.90646 5.68167
1 -8.14788 9.05549 5.48191
1 -7.40619 9.00828 4.76755
1 -6.8475 9.2844 4.07466
1 -6.3967 9.04487 3.21118
1 -5.58829 8.64008 3.54318
1 -5.61183 7.81797 4.06211
1 -5.1053 7.05864 3.64867
1 -4.60575 6.46933 4.20492
1 -4.38147 7.40847 4.3421
1 -0.98833 7.57165 7.78037
1 -0.302229 7.08194 7.3238
1 0.0382452 7.05599 8.22089
1 0.865486 7.09438 7.7084
1 1.53749 6.98316 7.02452
1 1.14294 6.72968 6.05706
1 2.06691 6.68502 5.94736
1 2.59817 6.11143 5.31743
1 1.77215 5.61184 5.12715
1 1.35683 4.74169 4.91213
1 7.84465 7.86628 3.12505
1 7.49278 7.98774 2.29321
1 7.19939 8.91542 2.15629
1 7.03518 9.60995 1.49185
1 6.75112 10.3136 2.07907
1 5.80188 10.2111 1.98758
1 5.92503 -10.5414 1.20904
1 5.05117 -10.5423 1.48621
1 4.23059 10.4962 1.68509
1 4.67134 10.499 2.47418
1 9.9385 0.901028 -0.658661
1 -10.6496 1.32916 -0.898034
1 -10.1148 0.508631 -0.944642
1 -10.6268 0.296483 -0.171827
1 10.3099 -0.318005 -0.779961
1 10.3571 -1.20691 -0.56926
1 -10.3406 -0.989568 0.0711826
1 -10.1826 -0.223959 0.633926
1 -10.0574 -0.504601 1.54991
1 10.4383 -0.61287 1.55366
1 9.78584 -8.90257 0.206688
1 10.3432 -8.5037 -0.449991
1 9.98164 -7.74759 -0.0509378
1 10.2368 -7.25387 0.69993
1 10.3773 -6.73036 1.44906
1 -10.631 -7.53502 1.69402
1 9.84993 -7.57722 1.7462
1 8.95925 -7.16605 1.88773
1 8.18196 -6.72052 2.14159
1 8.35882 -7.42371 2.73727
1 -10.0297 -10.5785 -4.09118
1 -10.1682 -9.83587 -3.46413
1 -9.80218 -10.3662 -2.72835
1 -9.81618 -9.43472 -2.51688
1 -10.5934 -9.74384 -2.00516
1 10.4518 -8.92529 -2.31957
1 -10.5371 -8.74023 -3.12336
1 10.236 -9.47843 -3.24828
1 10.4467 -10.2395 -3.80354
1 9.8461 -10.5554 -3.15879
1 -4.68746 -8.42954 3.06744
1 -4.4839 -8.33404 2.11596
1 -5.43254 -8.46372 1.99446
1 -6.22199 -8.95036 1.84413
1 -6.7187 -9.13786 2.63736
1 -6.02041 -9.81913 2.77847
1 -6.00746 -10.6017 2.1436
1 -5.36258 -10.3068 1.47641
1 -5.19309 -9.44959 1.85426
1 -4.31299 -9.88848 2.0008
1 7.03915 3.87712 6.74988
1 7.47804 3.82476 7.62945
1 7.73699 3.06058 8.09709
1 8.44124 3.23665 8.77919
1 9.26795 3.58308 8.76672
1 9.75833 3.67342 7.94583
1 10.4348 3.02395 7.79749
1 10.1734 2.1497 7.57411
1 9.50677 2.64598 8.03301
1 8.62267 2.38122 8.12034
1 -7.34542 -2.98805 10.5828
1 -7.28607 -2.05608 10.2721
1 -7.05063 -1.87077 -10.2638
1 -6.65073 -1.58171 -9.47313
1 -6.48607 -0.854384 -10.1041
1 -7.48801 -0.836111 -9.95595
1 -7.73393 -1.03677 -9.06419
1 -6.94844 -1.03368 -8.36904
1 -6.38583 -0.636012 -9.04413
1 -7.18791 -0.137996 -9.05094
1 -10.0527 10.5607 -1.14856
1 10.5225 -10.5633 -1.38556
1 -10.6067 10.6759 -2.27495
1 9.90214 -10.4235 -2.16166
1 9.15437 10.5387 -2.52164
1 9.09751 -9.92044 -2.39878
1 8.76767 -9.9896 -1.41053
1 8.3255 -9.45316 -0.740046
1 8.06773 -8.56566 -0.564647
1 8.97654 -8.65334 -0.786661
1 6.46793 -5.34527 7.95501
1 6.51614 -6.24927 8.40194
1 6.29712 -6.20062 7.41559
1 5.49165 -6.40637 7.87345
1 5.13208 -5.56006 7.63741
1 4.68978 -5.22125 8.42376
1 4.35026 -4.48449 7.87151
1 4.00295 -4.26316 6.98333
1 3.54899 -4.76097 6.2762
1 3.54069 -5.77678 6.41364
1 -1.39086 10.5759 4.00246
1 -1.00767 9.74792 4.2057
1 -0.871715 8.96349 4.75296
1 -0.457065 8.40365 4.04034
1 0.419624 8.52677 3.62247
1 0.192769 9.24127 4.33502
1 0.188709 8.53765 4.96976
1 -0.602328 8.03088 5.13547
1 -1.195 7.43601 5.73678
1 -1.0628 7.14832 6.61908
1 8.74321 -3.14595 -1.60129
1 8.838 -4.13573 -1.80895
1 9.46568 -3.48922 -2.22612
1 9.07655 -2.69454 -2.58174
1 9.23231 -2.12299 -1.79972
1 9.26328 -1.24106 -2.2445
1 8.65146 -0.82306 -2.94451
1 8.05862 -1.62514 -2.99606
1 7.69074 -0.900657 -2.56391
1 7.18654 -0.150479 -2.4656
1 0.253539 3.11368 -10.2034
1 -0.245078 3.07562 10.4608
1 -0.886162 3.31097 -10.2689
1 -0.522004 2.64518 -9.7155
1 0.304578 2.24281 -9.60607
1 -0.0203057 1.97615 -10.4669
1 0.33575 1.2788 10.4157
1 0.852868 0.885556 9.6936
1 -0.0215795 0.57983 9.63625
1 -0.215284 0.142387 10.4502
1 -4.28493 5.16448 1.54574
1 -3.59674 5.28051 2.36995
1 -4.42531 4.90712 2.69665
1 -4.83693 4.01883 2.63339
1 -3.80787 3.94216 2.50096
1 -3.36552 4.44956 1.81366
1 -2.52307 4.16649 1.99831
1 -2.05672 4.7969 2.49871
1 -1.80446 4.50942 3.37202
1 -1.60884 5.23636 3.9518
1 -8.03313 -6.79657 -5.20722
1 -7.14991 -6.59091 -4.89475
1 -6.56165 -6.37296 -5.55909
1 -5.71284 -6.2228 -5.99631
1 -5.30142 -5.40917 -5.69222
1 -5.85481 -5.17033 -6.44149
1 -4.9477 -5.02484 -6.84937
1 -5.05386 -4.17003 -6.42762
1 -5.88464 -3.73424 -6.67542
1 -6.31678 -2.87136 -6.59368
1 -6.45404 -10.661 -10.4951
1 -5.88542 10.3591 10.2344
1 -5.21828 9.72627 10.5407
1 -6.09279 9.26839 10.6981
1 -7.11829 9.29855 10.3907
1 -7.54124 9.45136 -10.2095
1 -8.09804 8.80281 10.7015
1 -7.53413 8.34443 -10.1265
1 -6.98186 7.88289 -9.50481
1 -6.02706 8.01217 -9.16519
1 0.653476 -10.0254 -3.57476
1 0.257488 10.6194 -3.84515
1 -0.198777 -10.0913 -4.30631
1 -0.298247 10.6767 -4.96425
1 -0.623844 10.0077 -5.59808
1 -1.38761 9.73096 -5.03436
1 -0.654143 9.42398 -4.43426
1 -0.032016 8.69944 -4.16331
1 0.634719 8.61668 -4.9526
1 0.302447 9.47975 -5.31521
1 5.71042 7.40767 9.0269
1 5.20895 8.18046 9.10689
1 4.95075 8.02907 10.0649
1 5.84554 8.31914 10.2665
1 6.07424 9.0627 -10.5384
1 6.4014 8.88454 -9.6467
1 5.42074 8.9678 -9.7402
1 5.25037 9.87848 -9.41317
1 5.80043 10.6497 -9.50507
1 5.03671 -10.2572 -9.76564
1 5.08437 3.26124 7.73238
1 5.21344 2.56604 7.12873
1 5.52033 2.40221 7.97362
1 5.66568 1.56065 7.5091
1 6.22333 2.22145 7.11678
1 6.46828 1.94576 6.10985
1 6.84631 2.52538 5.49949
1 7.59685 2.16656 5.98478
1 8.30956 2.38373 6.73074
1 8.67118 2.99801 7.33912
1 0.990433 -0.828945 -9.94049
1 1.42391 -1.16882 -9.1737
1 0.919726 -2.02472 -9.09803
1 0.725045 -2.87722 -8.48854
1 0.147322 -3.35405 -9.06942
1 -0.185496 -3.31718 -8.19408
1 -0.76061 -3.91591 -8.76462
1 -1.38517 -4.5996 -8.76746
1 -1.08581 -5.23206 -9.47923
1 -1.84029 -5.11575 -10.0746
1 9.44611 10.5036 7.72386
1 9.63216 10.5971 6.79442
1 10.1023 -10.5774 6.04056
1 10.1185 9.97132 5.75134
1 -10.5913 9.40403 5.93842
1 -9.81933 9.54357 6.53195
1 -10.1659 8.87485 7.07838
1 10.3454 8.38867 7.10657
1 10.4604 7.74091 7.84892
1 -10.61 8.66282 7.98025
1 -10.4854 -3.63676 -3.55295
1 -10.4881 -3.63295 -2.54871
1 -10.2739 -2.73515 -2.43201
1 -10.152 -2.38623 -1.51683
1 -10.5343 -2.44847 -0.559022
1 -10.3175 -3.33659 -0.754736
1 -9.43249 -3.67156 -1.04298
1 -9.9191 -4.10303 -1.72215
1 -9.82001 -4.50954 -2.54671
1 -9.39967 -5.23695 -3.01286
1 4.46098 3.88822 -7.37128
1 4.80267 3.38186 -8.0845
1 5.54985 3.5419 -8.59691
1 6.44378 3.994 -8.46836
1 6.7363 4.9521 -8.52359
1 7.34126 4.78368 -7.84457
1 6.538 5.11533 -7.47473
1 5.77338 4.73435 -8.02364
1 5.42752 5.02512 -7.20175
1 5.17292 4.75232 -6.3227
1 5.98123 -10.1183 -2.35946
1 5.1825 -9.79653 -2.76295
1 5.92064 -9.72422 -3.40287
1 5.70497 -9.79097 -4.39347
1 4.92448 -9.50056 -4.84902
1 4.91382 -9.68734 -5.77618
1 4.07252 -9.75591 -5.36154
1 4.10453 -10.4669 -4.70969
1 4.29709 10.0777 -4.42263
1 4.74921 -10.5718 -4.03442
1 -7.5839 -9.68997 -5.21494
1 -7.32088 -10.4356 -5.65552
1 -6.83269 -9.53071 -5.73469
1 -6.13457 -10.1245 -5.523
1 -6.10177 -9.685 -4.64803
1 -6.90017 -9.07925 -4.54674
1 -7.17411 -8.81709 -3.63599
1 -6.7875 -8.96399 -2.7161
1 -6.0744 -9.04601 -2.03392
1 -6.89893 -9.47591 -1.79446
1 8.19644 -6.41952 -9.58476
1 7.74954 -6.44984 -10.5043
1 7.03598 -6.24763 10.1397
1 7.59121 -5.46222 10.431
1 7.91201 -5.67862 9.6238
1 8.30049 -6.40959 10.124
1 9.15336 -6.7174 10.3519
1 10.1364 -6.93828 10.1515
1 10.6331 -6.39007 10.7057
1 -10.1734 -5.67349 -10.3533
1 1.13238 -4.91552 0.82364
1 1.43324 -5.8071 1.14387
1 1.58727 -5.65633 2.10537
1 2.16539 -6.34188 2.46712
1 2.17896 -7.1881 2.90222
1 3.00911 -7.11973 3.40191
1 3.73677 -7.72333 3.59873
1 3.58301 -7.11724 4.37715
1 3.77523 -6.14898 4.42099
1 3.87381 -5.64468 5.21371
1 4.437 -6.28014 9.34979
1 5.17403 -6.06953 8.86814
1 5.67328 -5.20063 8.63682
1 6.11648 -5.7274 9.3663
1 5.85426 -6.18287 10.2134
1 5.03723 -6.68608 10.1746
1 4.39784 -7.21725 10.6973
1 3.41577 -7.14485 10.5059
1 3.01223 -6.46264 -10.3485
1 3.73537 -6.20876 10.4765
1 -3.86112 -3.05929 -7.89917
1 -3.76486 -3.96938 -7.60152
1 -3.78707 -4.78626 -7.00626
1 -3.33827 -5.2228 -7.75082
1 -2.58167 -5.0678 -7.21788
1 -3.0391 -5.58976 -6.48284
1 -3.07891 -6.45162 -6.07825
1 -2.50279 -5.87573 -5.66269
1 -3.31659 -6.06681 -5.19665
1 -2.73949 -6.06769 -4.38019
1 1.29903 -8.53664 9.14078
1 0.776073 -7.72912 9.11423
1 1.32352 -7.06952 8.67137
1 1.01528 -6.19797 8.54415
1 1.66367 -6.04241 7.87958
1 2.22208 -6.70085 8.34755
1 3.00094 -7.24024 8.29109
1 3.92634 -7.11605 8.51952
1 4.88968 -7.00383 8.38046
1 4.55321 -6.84031 7.47602
1 -2.77266 4.64641 5.51157
1 -2.38773 4.43663 4.63714
1 -2.7399 5.29767 4.74186
1 -3.56334 4.97047 4.27075
1 -4.32398 4.53896 4.61139
1 -4.31399 4.87638 5.48661
1 -4.81763 4.02905 5.47264
1 -5.66642 4.33063 5.70219
1 -5.66953 4.0075 6.6306
1 -4.79104 4.48418 6.46596
1 -3.89916 -6.17492 -4.1562
1 -3.40617 -6.96675 -4.1606
1 -4.18092 -7.16758 -3.61006
1 -4.87064 -7.90886 -3.91131
1 -4.95087 -8.28406 -4.79149
1 -5.09555 -9.17102 -5.09861
1 -5.56354 -9.37583 -5.86173
1 -4.63469 -9.62378 -6.03521
1 -3.98295 -10.2426 -6.29585
1 -4.41258 -10.5039 -5.42692
1 7.26468 -4.92677 -0.944589
1 7.05358 -5.74332 -1.42812
1 7.71338 -6.27014 -1.80821
1 8.2539 -7.08176 -1.31592
1 8.21968 -7.16019 -0.319873
1 8.87349 -7.69769 0.117585
1 8.99354 -7.66166 -0.884722
1 9.47189 -6.8356 -0.813765
1 9.35869 -6.7619 0.196273
1 9.72113 -5.85444 -0.102355
1 3.59519 -2.12301 -4.59375
1 3.16354 -3.01564 -4.7805
1 2.80036 -3.84371 -5.00566
1 1.91809 -4.09862 -5.29574
1 1.74233 -3.70124 -6.20671
1 0.819776 -3.62908 -6.1214
1 1.27022 -3.36851 -5.30423
1 0.337662 -3.07947 -5.22516
1 0.832254 -3.24665 -4.3966
1 -0.0608363 -3.03338 -3.96988
1 -5.69521 -3.38539 7.46345
1 -5.00395 -3.52052 8.22034
1 -5.60523 -4.33485 8.18228
1 -4.99354 -5.10207 8.05087
1 -5.69129 -5.61909 7.95869
1 -5.11884 -5.85953 7.23946
1 -5.44611 -6.80717 7.2062
1 -4.98971 -7.33674 6.5593
1 -4.7322 -8.23589 6.28943
1 -4.08459 -7.60937 5.94973
1 9.70886 7.60768 -5.94028
1 8.89102 8.01961 -5.76982
1 9.45758 8.05936 -4.99992
1 9.36347 8.90387 -5.48021
1 10.3307 8.97292 -5.2798
1 -10.3589 9.20117 -5.94335
1 -9.47746 9.03868 -6.28614
1 -9.61676 9.78779 -5.67269
1 -10.436 9.82509 -5.15
1 10.5209 10.4225 -4.5822
1 -3.10393 0.123962 8.26111
1 -3.79814 0.230871 7.59653
1 -3.018 0.07234 7.11528
1 -3.35829 -0.645834 7.56694
1 -3.97118 -0.525044 6.84401
1 -4.54018 -0.803942 7.5451
1 -4.63899 -1.69866 7.28494
1 -5.30487 -1.08372 6.8024
1 -6.17502 -1.4421 7.07598
1 -5.77949 -2.34014 7.16869
1 -2.70406 9.06638 -2.14217
1 -3.1334 9.24474 -2.98599
1 -3.7029 9.93618 -3.38305
1 -4.30429 10.5546 -2.89745
1 -4.99885 10.3251 -2.23779
1 -5.50027 9.65309 -1.76773
1 -5.90111 8.87704 -1.26879
1 -6.77124 8.77581 -1.64127
1 -6.69222 7.91773 -1.11651
1 -6.37049 7.24714 -1.82413
1 8.41564 -3.47118 -3.44259
1 8.36138 -3.54869 -2.55949
1 7.55694 -3.85178 -2.90741
1 7.71929 -2.82646 -3.00228
1 6.79435 -3.01261 -3.11157
1 6.26485 -2.73743 -2.32444
1 5.86696 -3.62661 -2.12263
1 6.15855 -3.94052 -1.33729
1 5.34057 -4.28709 -1.33242
1 6.152 -4.72988 -0.81579
1 -9.82015 -10.0414 7.88514
1 -9.4939 10.6433 7.34573
1 -9.28106 -9.98165 6.95564
1 -10.1061 -10.1868 6.46178
1 -10.0265 -9.2516 6.64513
1 -10.4 -9.06126 7.54496
1 -9.58423 -9.06778 7.98456
1 -9.10324 -8.55479 7.24515
1 -8.79201 -7.86142 7.88067