units 		lj
dimension 	3

#atom_style	bond
# if there are angular potentials, use next line
atom_style	angle
angle_style	cosine

read_data k{20}t{1.2}p{0.0}f{5}n{8000}npt.lmp #comment me after t1.2
  orthogonal box = (-10 -10 -10) to (10 10 10)
  2 by 2 by 2 MPI processor grid
  reading atoms ...
  8000 atoms
  reading velocities ...
  8000 velocities
  scanning bonds ...
  1 = max bonds/atom
  scanning angles ...
  1 = max angles/atom
  reading bonds ...
  7200 bonds
  reading angles ...
  320 angles
  2 = max # of 1-2 neighbors
  2 = max # of 1-3 neighbors
  4 = max # of 1-4 neighbors
  6 = max # of special neighbors
  special bonds CPU = 0.691825 secs
  read_data CPU = 1.53813 secs
#read_restart k${k}t${T}p${p}f${f}n${n}npt-1.res #todo: use both instead of 1? talk to Starr

pair_style	lj/cut	2.5
#when using global * * the cutoff should be the smallest of all possible pairs
pair_coeff	* *	1.0 1.0 2.5  #final 2.5 is redundant here; can override global
pair_modify	shift	yes

bond_style	fene
bond_coeff	1	30 1.5		1.0 1.0
special_bonds fene
  2 = max # of 1-2 neighbors
  6 = max # of special neighbors
  special bonds CPU = 0.343375 secs

angle_coeff 	1 ${k}
angle_coeff 	1 20

fix	1	all npt	temp ${T} ${T}  1.0   iso ${p} ${p} 5.0 #todo: is this what f is?
fix	1	all npt	temp 1.2 ${T}  1.0   iso ${p} ${p} 5.0 
fix	1	all npt	temp 1.2 1.2  1.0   iso ${p} ${p} 5.0 
fix	1	all npt	temp 1.2 1.2  1.0   iso 0.0 ${p} 5.0 
fix	1	all npt	temp 1.2 1.2  1.0   iso 0.0 0.0 5.0 
#starting temperature/ending Temperature/Tdamp
fix cmvel all momentum 1000 linear 1 1 1

# todo: find a way to store energy between two different types of poly chains
thermo_style custom step ke pe etotal epair ebond eangle press temp lx vol
thermo 1000

dump 1 all xyz	100000	dump${k}.xyz
dump 1 all xyz	100000	dump20.xyz

restart 1000 k${k}t${T}p${p}f${f}n${n}npt-1.res k${k}t${T}p${p}f${f}n${n}npt-2.res
restart 1000 k20t${T}p${p}f${f}n${n}npt-1.res k${k}t${T}p${p}f${f}n${n}npt-2.res
restart 1000 k20t1.2p${p}f${f}n${n}npt-1.res k${k}t${T}p${p}f${f}n${n}npt-2.res
restart 1000 k20t1.2p0.0f${f}n${n}npt-1.res k${k}t${T}p${p}f${f}n${n}npt-2.res
restart 1000 k20t1.2p0.0f5n${n}npt-1.res k${k}t${T}p${p}f${f}n${n}npt-2.res
restart 1000 k20t1.2p0.0f5n8000npt-1.res k${k}t${T}p${p}f${f}n${n}npt-2.res
restart 1000 k20t1.2p0.0f5n8000npt-1.res k20t${T}p${p}f${f}n${n}npt-2.res
restart 1000 k20t1.2p0.0f5n8000npt-1.res k20t1.2p${p}f${f}n${n}npt-2.res
restart 1000 k20t1.2p0.0f5n8000npt-1.res k20t1.2p0.0f${f}n${n}npt-2.res
restart 1000 k20t1.2p0.0f5n8000npt-1.res k20t1.2p0.0f5n${n}npt-2.res
restart 1000 k20t1.2p0.0f5n8000npt-1.res k20t1.2p0.0f5n8000npt-2.res

#run_style respa 2 3 bond 1 pair 2
#timestep 0.006

timestep 0.002

run 10000000
Neighbor list info ...
  update every 1 steps, delay 10 steps, check yes
  max neighbors/atom: 2000, page size: 100000
  master list distance cutoff = 2.8
  ghost atom cutoff = 2.8
  binsize = 1.4, bins = 15 15 15
  1 neighbor lists, perpetual/occasional/extra = 1 0 0
  (1) pair lj/cut, perpetual
      attributes: half, newton on
      pair build: half/bin/newton
      stencil: half/bin/3d/newton
      bin: standard
WARNING: Inconsistent image flags (../domain.cpp:785)
Per MPI rank memory allocation (min/avg/max) = 6.496 | 6.516 | 6.649 Mbytes
Step KinEng PotEng TotEng E_pair E_bond E_angle Press Temp Lx Volume 
       0   0.48448444     13.28767    13.772155   -5.6481987    18.329377   0.60649204   -1.5880033   0.32303001           20         8000 
    1000   0.82150064    13.226762    14.048263   -5.4249756    18.428055   0.22368234  0.024923837   0.54773556    20.066464    8080.0218 
    2000     1.029179    13.459459    14.488638   -5.2085362    18.490032   0.17796371   0.14343276   0.68620511    20.213948    8259.4936 
    3000    1.2308483    13.790414    15.021263    -4.926167    18.566039   0.15054196   0.30824651   0.82066812    20.434916    8533.3311 
    4000     1.455067    14.143795    15.598862   -4.6174382    18.626093   0.13514032   0.35711355   0.97016594    20.703631    8874.4112 
    5000    1.6693108    14.480621    16.149932   -4.3168277    18.682236   0.11521261   0.18746463     1.113013    20.998889    9259.5309 
    6000    1.8194989    14.738765    16.558264   -4.0926481    18.727454   0.10395911  0.090882513    1.2131509    21.261825    9611.7316 
    7000    1.8407985    14.856721    16.697519   -3.9966027     18.75698   0.09634299   0.24839412    1.2273524    21.428982    9840.2163 
    8000    1.7713506    14.825749      16.5971   -3.9848058    18.731615  0.078939676 -0.023876181    1.1810481    21.449302    9868.2351 
    9000    1.7906421    14.800504    16.591146   -4.0192421    18.741685  0.078060877 -0.020641984    1.1939107    21.392633    9790.2258 
   10000    1.7885571    14.828252    16.616809   -3.9793877    18.731519  0.076120152   0.19787688    1.1925205    21.429821    9841.3712 
   11000    1.7972062     14.81358    16.610787   -3.9864125    18.733267  0.066725888  0.044386629    1.1982873    21.426882    9837.3226 
   12000     1.799852    14.780444    16.580296   -4.0144601    18.728144   0.06675985 -0.023057717    1.2000514    21.385728    9780.7486 
   13000    1.7862387    14.768971     16.55521   -4.0234646    18.730538  0.061897848 0.0043502575    1.1909746    21.373007    9763.3063 
   14000    1.7966607    14.782072    16.578733   -3.9988404    18.719889  0.061023254  0.010618753    1.1979235    21.414051    9819.6612 
   15000    1.8132594    14.799161     16.61242   -4.0003808    18.740648  0.058893988  -0.21227001    1.2089907     21.42599    9836.0943 
   16000    1.7829373    14.785622     16.56856   -3.9870279       18.716  0.056650083  -0.12357303    1.1887735    21.435028    9848.5468 
   17000     1.803234     14.77439    16.577624   -4.0021897    18.724617  0.051962917  0.062003696    1.2023063    21.400756    9801.3825 
   18000    1.7815543    14.812021    16.593576   -3.9663961    18.727016  0.051401785 -0.065496272    1.1878513    21.441083    9856.8957 
   19000    1.8028209    14.792032    16.594853   -3.9959298    18.736572  0.051389916  0.055755916    1.2020308    21.392881    9790.5668 
   20000    1.7750904    14.783061    16.558151    -3.999196    18.730535  0.051721671  -0.12902585    1.1835415    21.428688    9839.8113 
   21000    1.8103127    14.783288      16.5936   -3.9905303    18.723817  0.050001312   0.18407155     1.207026    21.414218    9819.8904 
   22000    1.8219499    14.791515    16.613465   -3.9814123     18.72161  0.051317487 -0.022177863    1.2147851    21.451027    9870.6164 
   23000    1.7811159     14.83632    16.617436   -3.9468464      18.7322  0.050966158  0.084126681     1.187559     21.47504    9903.8014 
   24000    1.8089658    14.775892    16.584857   -4.0138756    18.737034  0.052733027    0.1630501     1.206128    21.402981    9804.4398 
   25000    1.7816381    14.768898    16.550536   -3.9943767    18.717285  0.045989664  0.098613826    1.1879073    21.412454    9817.4647 
   26000      1.82316    14.748352    16.571512   -4.0239113    18.722669  0.049593893 -0.008383848     1.215592    21.410641    9814.9714 
   27000     1.786151    14.817711    16.603862   -3.9767475    18.745703  0.048755292   0.14274828    1.1909162    21.443314    9859.9725 
   28000    1.8202881    14.799737    16.620025   -3.9875855    18.736309   0.05101369  0.011943998    1.2136771    21.429236    9840.5659 
   29000    1.7953907    14.745302    16.540693   -4.0294276     18.72097  0.053760147 -0.093540782    1.1970768    21.386348    9781.5998 
   30000     1.776313     14.75347    16.529783   -4.0378164    18.740595  0.050691653   0.16209023    1.1843567    21.344147    9723.8083 
   31000    1.7824761    14.791943    16.574419   -3.9843559    18.725261   0.05103773 -0.047851044     1.188466    21.429249    9840.5836 
   32000    1.8239273    14.803677    16.627604   -3.9665548    18.722805   0.04742658  -0.10922231    1.2161036    21.458162    9880.4693 
   33000    1.7828478    14.799357    16.582205   -3.9827271    18.732015  0.050069467 -0.0062237339    1.1887138    21.445394     9862.842 
   34000     1.793359     14.78768    16.581039   -3.9878862    18.727593  0.047972816   0.12566779    1.1957221    21.389836    9786.3864 
   35000    1.7849281    14.759405    16.544333   -4.0134327    18.726433  0.046404548   -0.1242756    1.1901009    21.423671    9832.9016 
   36000    1.8154025    14.783448     16.59885   -3.9944106    18.728405   0.04945319   0.08748789    1.2104197    21.413467    9818.8572 
   37000    1.8191354    14.767701    16.586837   -3.9898731    18.708331  0.049243607  0.065603422    1.2129085     21.44316    9859.7599 
   38000    1.8132066    14.759142    16.572349   -4.0247833    18.735676  0.048249486 -0.070573066    1.2089555    21.388224    9784.1735 
   39000    1.8005439    14.741575    16.542119   -4.0352215    18.725969  0.050827972 -0.080292164    1.2005127    21.388837    9785.0159 
   40000    1.8055514    14.748815    16.554367   -4.0274501     18.72456  0.051705412  0.036437914    1.2038514    21.380726    9773.8882 
   41000    1.8143592    14.768608    16.582967   -4.0088346    18.733665  0.043777379 -0.077852814     1.209724    21.417402    9824.2711 
   42000    1.8076047    14.772743    16.580348     -4.00428    18.730122  0.046900915  0.066479376    1.2052204    21.418834    9826.2424 
   43000    1.8165753    14.760785     16.57736   -3.9984566     18.71226  0.046981195  -0.14069791    1.2112016    21.427071     9837.584 
   44000    1.8095718    14.761327    16.570899   -4.0096552     18.72279  0.048191832  0.035219767     1.206532    21.391273    9788.3593 
   45000    1.7883406    14.779012    16.567352     -4.00056     18.73047   0.04910139 -0.00019083216    1.1923761    21.402153    9803.3021 
   46000    1.7933206      14.7809    16.574221   -3.9965658     18.72648  0.050985872  -0.11561328    1.1956965    21.422072    9830.6991 
   47000    1.7887626    14.791104    16.579867   -3.9953477    18.732856  0.053596468   0.13663414    1.1926575    21.394415    9792.6736 
   48000    1.7775569    14.789376    16.566933   -3.9823707    18.729515  0.042232073   0.10989442    1.1851861    21.436501    9850.5778 
   49000     1.825088    14.780882     16.60597   -3.9913035    18.727893  0.044292156 -0.097633301    1.2168774    21.442493    9858.8407 
   50000     1.823202    14.763459    16.586661   -3.9995384    18.715928  0.047069393   0.24909056    1.2156199    21.415635    9821.8402 
   51000    1.7918947    14.764438    16.556333   -4.0077364    18.726365  0.045809174 -0.058386931    1.1947458    21.417914    9824.9761 
   52000    1.8087001     14.77045    16.579151   -4.0124563    18.731453  0.051453972  0.080173088    1.2059508    21.401927     9802.992 
   53000    1.7879776    14.781165    16.569142   -3.9818839    18.716474  0.046574423  0.039388884    1.1921341    21.430293    9842.0222 
   54000    1.8093561    14.796538    16.605894   -3.9812226    18.726158   0.05160232 -0.0023759491    1.2063882    21.447794    9866.1543 
   55000    1.8086567    14.786874     16.59553   -3.9847227    18.718301  0.053294926   0.10341788    1.2059219    21.414041    9819.6474 
   56000    1.7557692    14.795593    16.551362   -3.9902227    18.737483  0.048332829  0.032726465    1.1706592    21.419363    9826.9705 
   57000    1.8087321    14.771009    16.579741   -4.0079009    18.730818  0.048092237 0.0045141277    1.2059721    21.392997    9790.7257 
   58000    1.8003097    14.780168    16.580478   -3.9929349    18.724838  0.048264725  -0.18950472    1.2003565    21.445908    9863.5513 
   59000    1.8091441    14.796477    16.605621   -3.9822356     18.73097  0.047741981   0.15704278    1.2062469    21.422293    9831.0044 
   60000    1.7796239    14.782791    16.562415   -3.9916589    18.726887  0.047562108  0.029366511    1.1865642    21.412246    9817.1779 
   61000    1.7842644    14.763268    16.547533   -3.9992907    18.716067  0.046492323   0.15438288    1.1896583    21.391324    9788.4291 
   62000    1.8128752    14.796725      16.6096   -3.9680817     18.71768  0.047126131   0.06176566    1.2087345    21.439845    9855.1878 
   63000    1.7823236    14.812856     16.59518   -3.9684049    18.735108  0.046153455  -0.05686652    1.1883643    21.458962    9881.5737 
   64000    1.8051817    14.776785    16.581967   -3.9968371    18.725819  0.047803425   0.17302835    1.2036049    21.386714    9782.1019 
   65000    1.7650101    14.772205    16.537215   -3.9953206    18.720859  0.046665928 -0.023447574    1.1768205    21.415555    9821.7297 
   66000    1.8220175    14.775456    16.597473   -3.9964665      18.7256   0.04632205 -0.005822386    1.2148302    21.410396    9814.6338 
   67000     1.814355      14.7818    16.596155   -4.0013091    18.735395   0.04771347  -0.14651091    1.2097212    21.433441    9846.3591 
   68000    1.7987053    14.784142    16.582847   -3.9747731    18.710939   0.04797615  0.053577568    1.1992868    21.424001    9833.3556 
   69000    1.7934031    14.780182    16.573585   -3.9955097     18.73093  0.044761037 -0.037658547    1.1957515    21.418168    9825.3254 
   70000    1.8280652    14.750834    16.578899   -4.0173941    18.722584  0.045644578  0.022259212    1.2188625    21.420355    9828.3363 
   71000    1.8009918    14.769642    16.570634   -3.9871606    18.712739  0.044063569  0.065620721    1.2008113    21.427796    9838.5821 
   72000    1.8145923    14.765773    16.580366   -4.0053753    18.722165   0.04898331  0.054467934    1.2098794    21.407791    9811.0512 
   73000    1.7979573    14.797922    16.595879    -3.977179     18.72974  0.045361437  -0.19196679     1.198788    21.461816    9885.5166 
   74000    1.8264237    14.777748    16.604172   -3.9886362    18.721463  0.044921264   0.18447263     1.217768     21.40764    9810.8447 
   75000    1.7914049    14.767342    16.558747   -3.9992838    18.721352   0.04527346 -0.063107431    1.1944192    21.424067    9833.4462 
   76000    1.7984795    14.778722    16.577202   -4.0133099    18.738495  0.053536949 -0.042698794    1.1991362    21.395204     9793.757 
   77000    1.7849007      14.8162      16.6011   -3.9661391    18.732882  0.049456651 -0.087094898    1.1900825      21.4737     9901.948 
   78000    1.8251504    14.786827    16.611977    -3.994166    18.732483  0.048509651   0.15995505     1.216919     21.39629    9795.2478 
   79000    1.7790689     14.77581    16.554879   -3.9933351    18.725944   0.04320077 -0.090814356    1.1861942    21.438389    9853.1801 
   80000    1.8062143    14.786238    16.592452   -4.0004172    18.737966   0.04868961  0.095961211    1.2042934    21.396859    9796.0298 
   81000    1.7861455    14.786234     16.57238   -4.0001908    18.735882  0.050542746  -0.17739979    1.1909125     21.43966    9854.9333 
   82000    1.7914754    14.742578    16.534054   -4.0410247     18.73515  0.048452669   0.15352142    1.1944662    21.355636    9739.5191 
   83000    1.7881272    14.751867    16.539995   -4.0158985    18.718198  0.049568011  0.032302565    1.1922339    21.380722    9773.8825 
   84000    1.7932045    14.792705    16.585909   -3.9782012    18.722174  0.048732318  0.040261154    1.1956192    21.429263    9840.6025 
   85000    1.7939566    14.811443      16.6054   -3.9796912    18.742149  0.048985343  -0.10983212    1.1961206    21.451888     9871.805 
   86000    1.8235003    14.812442    16.635942   -3.9732909    18.737081  0.048651711 -0.056816588    1.2158188    21.434054    9847.2044 
   87000    1.8000144    14.776059    16.576074   -3.9895202     18.71914  0.046439547 -0.016900773    1.2001596    21.414343    9820.0629 
   88000    1.7858973    14.787623     16.57352   -3.9919838    18.726352  0.053255002  0.019096214     1.190747    21.424845    9834.5176 
   89000    1.8114749     14.77717    16.588645   -3.9998107    18.726009  0.050971759 -0.074416046    1.2078009    21.409103    9812.8556 
   90000    1.7875802    14.782421    16.570002   -3.9853735    18.718129  0.049665751 -0.029899558    1.1918691    21.429078    9840.3486 
   91000    1.8105825    14.759071    16.569654   -4.0036064    18.717952  0.044725545   0.17199219    1.2072059    21.399258    9799.3248 
   92000      1.77146    14.791056    16.562516   -3.9729663    18.717183  0.046838688  -0.16973049     1.181121    21.449595    9868.6394 
   93000    1.8027916