units 		lj
dimension 	3

#atom_style	bond
# if there are angular potentials, use next line
atom_style	angle
angle_style	cosine

read_data t1.2p0.0n8000npt.lmp
  orthogonal box = (-10 -10 -10) to (10 10 10)
  2 by 2 by 2 MPI processor grid
  reading atoms ...
  8000 atoms
  reading velocities ...
  8000 velocities
  scanning bonds ...
  1 = max bonds/atom
  scanning angles ...
  1 = max angles/atom
  reading bonds ...
  7200 bonds
  reading angles ...
  320 angles
  2 = max # of 1-2 neighbors
  2 = max # of 1-3 neighbors
  4 = max # of 1-4 neighbors
  6 = max # of special neighbors
  special bonds CPU = 0.00117493 secs
  read_data CPU = 0.036128 secs

pair_style	lj/cut	2.5
#when using global * * the cutoff should be the smallest of all possible pairs
pair_coeff	* *	1.0 1.0 2.5  #final 2.5 is redundant here; can override global
pair_modify	shift	yes

bond_style	fene
bond_coeff	1	30 1.5		1.0 1.0
special_bonds fene
  2 = max # of 1-2 neighbors
  6 = max # of special neighbors
  special bonds CPU = 0.000406981 secs

angle_coeff 	1 ${k}
angle_coeff 	1 20

fix	1	all npt	temp 1.2 1.2 1.0   iso 0.0 0.0 5.0
#starting temperature/ending Temperature/Tdamp
fix cmvel all momentum 1000 linear 1 1 1

thermo_style custom step ke pe etotal epair ebond eangle press temp lx vol
thermo 1000

dump 1 all xyz	1000	dump{$k}.xyz
dump 1 all xyz	1000	dump{20}.xyz

restart 1000 t1.2p0.0n8000npt-1.res 0.5p0.0n8000npt-2.res

#run_style respa 2 3 bond 1 pair 2
#timestep 0.006

timestep 0.002

run 10000000
Neighbor list info ...
  update every 1 steps, delay 10 steps, check yes
  max neighbors/atom: 2000, page size: 100000
  master list distance cutoff = 2.8
  ghost atom cutoff = 2.8
  binsize = 1.4, bins = 15 15 15
  1 neighbor lists, perpetual/occasional/extra = 1 0 0
  (1) pair lj/cut, perpetual
      attributes: half, newton on
      pair build: half/bin/newton
      stencil: half/bin/3d/newton
      bin: standard
WARNING: Inconsistent image flags (../domain.cpp:785)
Per MPI rank memory allocation (min/avg/max) = 6.496 | 6.516 | 6.649 Mbytes
Step KinEng PotEng TotEng E_pair E_bond E_angle Press Temp Lx Volume 
       0   0.48448444     13.28767    13.772155   -5.6481987    18.329377   0.60649204   -1.5880033   0.32303001           20         8000 
    1000   0.82150064    13.226762    14.048263   -5.4249756    18.428055   0.22368234  0.024923837   0.54773556    20.066464    8080.0218 
    2000     1.029179    13.459459    14.488638   -5.2085362    18.490032   0.17796371   0.14343276   0.68620511    20.213948    8259.4936 
    3000    1.2308483    13.790414    15.021263    -4.926167    18.566039   0.15054196   0.30824651   0.82066812    20.434916    8533.3311 
    4000     1.455067    14.143795    15.598862   -4.6174382    18.626093   0.13514032   0.35711355   0.97016594    20.703631    8874.4112 
    5000    1.6693108    14.480621    16.149932   -4.3168277    18.682236   0.11521261   0.18746463     1.113013    20.998889    9259.5309 
    6000    1.8194989    14.738765    16.558264   -4.0926481    18.727454   0.10395911  0.090882513    1.2131509    21.261825    9611.7316 
    7000    1.8407985    14.856721    16.697519   -3.9966027     18.75698   0.09634299   0.24839412    1.2273524    21.428982    9840.2163 
    8000    1.7713506    14.825749      16.5971   -3.9848058    18.731615  0.078939676 -0.023876181    1.1810481    21.449302    9868.2351 
    9000    1.7906421    14.800504    16.591146   -4.0192421    18.741685  0.078060877 -0.020641984    1.1939107    21.392633    9790.2258 
   10000    1.7885571    14.828252    16.616809   -3.9793877    18.731519  0.076120152   0.19787688    1.1925205    21.429821    9841.3712 
   11000    1.7972062     14.81358    16.610787   -3.9864125    18.733267  0.066725888  0.044386629    1.1982873    21.426882    9837.3226 
   12000     1.799852    14.780444    16.580296   -4.0144601    18.728144   0.06675985 -0.023057717    1.2000514    21.385728    9780.7486 
   13000    1.7862387    14.768971     16.55521   -4.0234646    18.730538  0.061897848 0.0043502575    1.1909746    21.373007    9763.3063 
   14000    1.7966607    14.782072    16.578733   -3.9988404    18.719889  0.061023254  0.010618753    1.1979235    21.414051    9819.6612 
   15000    1.8132594    14.799161     16.61242   -4.0003808    18.740648  0.058893988  -0.21227001    1.2089907     21.42599    9836.0943 
   16000    1.7829373    14.785622     16.56856   -3.9870279       18.716  0.056650083  -0.12357303    1.1887735    21.435028    9848.5468 
   17000     1.803234     14.77439    16.577624   -4.0021897    18.724617  0.051962917  0.062003696    1.2023063    21.400756    9801.3825 
   18000    1.7815543    14.812021    16.593576   -3.9663961    18.727016  0.051401785 -0.065496272    1.1878513    21.441083    9856.8957 
   19000    1.8028209    14.792032    16.594853   -3.9959298    18.736572  0.051389916  0.055755916    1.2020308    21.392881    9790.5668 
   20000    1.7750904    14.783061    16.558151    -3.999196    18.730535  0.051721671  -0.12902585    1.1835415    21.428688    9839.8113 
   21000    1.8103127    14.783288      16.5936   -3.9905303    18.723817  0.050001312   0.18407155     1.207026    21.414218    9819.8904 
   22000    1.8219499    14.791515    16.613465   -3.9814123     18.72161  0.051317487 -0.022177863    1.2147851    21.451027    9870.6164 
   23000    1.7811159     14.83632    16.617436   -3.9468464      18.7322  0.050966158  0.084126681     1.187559     21.47504    9903.8014 
   24000    1.8089658    14.775892    16.584857   -4.0138756    18.737034  0.052733027    0.1630501     1.206128    21.402981    9804.4398 
   25000    1.7816381    14.768898    16.550536   -3.9943767    18.717285  0.045989664  0.098613826    1.1879073    21.412454    9817.4647 
   26000      1.82316    14.748352    16.571512   -4.0239113    18.722669  0.049593893 -0.008383848     1.215592    21.410641    9814.9714 
   27000     1.786151    14.817711    16.603862   -3.9767475    18.745703  0.048755292   0.14274828    1.1909162    21.443314    9859.9725 
   28000    1.8202881    14.799737    16.620025   -3.9875855    18.736309   0.05101369  0.011943998    1.2136771    21.429236    9840.5659 
   29000    1.7953907    14.745302    16.540693   -4.0294276     18.72097  0.053760147 -0.093540782    1.1970768    21.386348    9781.5998 
   30000     1.776313     14.75347    16.529783   -4.0378164    18.740595  0.050691653   0.16209023    1.1843567    21.344147    9723.8083 
   31000    1.7824761    14.791943    16.574419   -3.9843559    18.725261   0.05103773 -0.047851044     1.188466    21.429249    9840.5836 
   32000    1.8239273    14.803677    16.627604   -3.9665548    18.722805   0.04742658  -0.10922231    1.2161036    21.458162    9880.4693 
   33000    1.7828478    14.799357    16.582205   -3.9827271    18.732015  0.050069467 -0.0062237339    1.1887138    21.445394     9862.842 
   34000     1.793359     14.78768    16.581039   -3.9878862    18.727593  0.047972816   0.12566779    1.1957221    21.389836    9786.3864 
   35000    1.7849281    14.759405    16.544333   -4.0134327    18.726433  0.046404548   -0.1242756    1.1901009    21.423671    9832.9016 
   36000    1.8154025    14.783448     16.59885   -3.9944106    18.728405   0.04945319   0.08748789    1.2104197    21.413467    9818.8572 
   37000    1.8191354    14.767701    16.586837   -3.9898731    18.708331  0.049243607  0.065603422    1.2129085     21.44316    9859.7599 
   38000    1.8132066    14.759142    16.572349   -4.0247833    18.735676  0.048249486 -0.070573066    1.2089555    21.388224    9784.1735 
   39000    1.8005439    14.741575    16.542119   -4.0352215    18.725969  0.050827972 -0.080292164    1.2005127    21.388837    9785.0159 
   40000    1.8055514    14.748815    16.554367   -4.0274501     18.72456  0.051705412  0.036437914    1.2038514    21.380726    9773.8882 
   41000    1.8143592    14.768608    16.582967   -4.0088346    18.733665  0.043777379 -0.077852814     1.209724    21.417402    9824.2711 
   42000    1.8076047    14.772743    16.580348     -4.00428    18.730122  0.046900915  0.066479376    1.2052204    21.418834    9826.2424 
   43000    1.8165753    14.760785     16.57736   -3.9984566     18.71226  0.046981195  -0.14069791    1.2112016    21.427071     9837.584 
   44000    1.8095718    14.761327    16.570899   -4.0096552     18.72279  0.048191832  0.035219767     1.206532    21.391273    9788.3593 
   45000    1.7883406    14.779012    16.567352     -4.00056     18.73047   0.04910139 -0.00019083216    1.1923761    21.402153    9803.3021 
   46000    1.7933206      14.7809    16.574221   -3.9965658     18.72648  0.050985872  -0.11561328    1.1956965    21.422072    9830.6991 
   47000    1.7887626    14.791104    16.579867   -3.9953477    18.732856  0.053596468   0.13663414    1.1926575    21.394415    9792.6736 
   48000    1.7775569    14.789376    16.566933   -3.9823707    18.729515  0.042232073   0.10989442    1.1851861    21.436501    9850.5778 
   49000     1.825088    14.780882     16.60597   -3.9913035    18.727893  0.044292156 -0.097633301    1.2168774    21.442493    9858.8407 
   50000     1.823202    14.763459    16.586661   -3.9995384    18.715928  0.047069393   0.24909056    1.2156199    21.415635    9821.8402 
   51000    1.7918947    14.764438    16.556333   -4.0077364    18.726365  0.045809174 -0.058386931    1.1947458    21.417914    9824.9761 
   52000    1.8087001     14.77045    16.579151   -4.0124563    18.731453  0.051453972  0.080173088    1.2059508    21.401927     9802.992 
   53000    1.7879776    14.781165    16.569142   -3.9818839    18.716474  0.046574423  0.039388884    1.1921341    21.430293    9842.0222 
   54000    1.8093561    14.796538    16.605894   -3.9812226    18.726158   0.05160232 -0.0023759491    1.2063882    21.447794    9866.1543 
   55000    1.8086567    14.786874     16.59553   -3.9847227    18.718301  0.053294926   0.10341788    1.2059219    21.414041    9819.6474 
   56000    1.7557692    14.795593    16.551362   -3.9902227    18.737483  0.048332829  0.032726465    1.1706592    21.419363    9826.9705 
   57000    1.8087321    14.771009    16.579741   -4.0079009    18.730818  0.048092237 0.0045141277    1.2059721    21.392997    9790.7257 
   58000    1.8003097    14.780168    16.580478   -3.9929349    18.724838  0.048264725  -0.18950472    1.2003565    21.445908    9863.5513 
   59000    1.8091441    14.796477    16.605621   -3.9822356     18.73097  0.047741981   0.15704278    1.2062469    21.422293    9831.0044 
   60000    1.7796239    14.782791    16.562415   -3.9916589    18.726887  0.047562108  0.029366511    1.1865642    21.412246    9817.1779 
   61000    1.7842644    14.763268    16.547533   -3.9992907    18.716067  0.046492323   0.15438288    1.1896583    21.391324    9788.4291 
   62000    1.8128752    14.796725      16.6096   -3.9680817     18.71768  0.047126131   0.06176566    1.2087345    21.439845    9855.1878 
   63000    1.7823236    14.812856     16.59518   -3.9684049    18.735108  0.046153455  -0.05686652    1.1883643    21.458962    9881.5737 
   64000    1.8051817    14.776785    16.581967   -3.9968371    18.725819  0.047803425   0.17302835    1.2036049    21.386714    9782.1019 
   65000    1.7650101    14.772205    16.537215   -3.9953206    18.720859  0.046665928 -0.023447574    1.1768205    21.415555    9821.7297 
   66000    1.8220175    14.775456    16.597473   -3.9964665      18.7256   0.04632205 -0.005822386    1.2148302    21.410396    9814.6338 
   67000     1.814355      14.7818    16.596155   -4.0013091    18.735395   0.04771347  -0.14651091    1.2097212    21.433441    9846.3591 
   68000    1.7987053    14.784142    16.582847   -3.9747731    18.710939   0.04797615  0.053577568    1.1992868    21.424001    9833.3556 
   69000    1.7934031    14.780182    16.573585   -3.9955097     18.73093  0.044761037 -0.037658547    1.1957515    21.418168    9825.3254 
   70000    1.8280652    14.750834    16.578899   -4.0173941    18.722584  0.045644578  0.022259212    1.2188625    21.420355    9828.3363 
   71000    1.8009918    14.769642    16.570634   -3.9871606    18.712739  0.044063569  0.065620721    1.2008113    21.427796    9838.5821 
   72000    1.8145923    14.765773    16.580366   -4.0053753    18.722165   0.04898331  0.054467934    1.2098794    21.407791    9811.0512 
   73000    1.7979573    14.797922    16.595879    -3.977179     18.72974  0.045361437  -0.19196679     1.198788    21.461816    9885.5166 
   74000    1.8264237    14.777748    16.604172   -3.9886362    18.721463  0.044921264   0.18447263     1.217768     21.40764    9810.8447 
   75000    1.7914049    14.767342    16.558747   -3.9992838    18.721352   0.04527346 -0.063107431    1.1944192    21.424067    9833.4462 
   76000    1.7984795    14.778722    16.577202   -4.0133099    18.738495  0.053536949 -0.042698794    1.1991362    21.395204     9793.757 
   77000    1.7849007      14.8162      16.6011   -3.9661391    18.732882  0.049456651 -0.087094898    1.1900825      21.4737     9901.948 
   78000    1.8251504    14.786827    16.611977    -3.994166    18.732483  0.048509651   0.15995505     1.216919     21.39629    9795.2478 
   79000    1.7790689     14.77581    16.554879   -3.9933351    18.725944   0.04320077 -0.090814356    1.1861942    21.438389    9853.1801 
   80000    1.8062143    14.786238    16.592452   -4.0004172    18.737966   0.04868961  0.095961211    1.2042934    21.396859    9796.0298 
   81000    1.7861455    14.786234     16.57238   -4.0001908    18.735882  0.050542746  -0.17739979    1.1909125     21.43966    9854.9333 
   82000    1.7914754    14.742578    16.534054   -4.0410247     18.73515  0.048452669   0.15352142    1.1944662    21.355636    9739.5191 
   83000    1.7881272    14.751867    16.539995   -4.0158985    18.718198  0.049568011  0.032302565    1.1922339    21.380722    9773.8825 
   84000    1.7932045    14.792705    16.585909   -3.9782012    18.722174  0.048732318  0.040261154    1.1956192    21.429263    9840.6025 
   85000    1.7939566    14.811443      16.6054   -3.9796912    18.742149  0.048985343  -0.10983212    1.1961206    21.451888     9871.805 
   86000    1.8235003    14.812442    16.635942   -3.9732909    18.737081  0.048651711 -0.056816588    1.2158188    21.434054    9847.2044 
   87000    1.8000144    14.776059    16.576074   -3.9895202     18.71914  0.046439547 -0.016900773    1.2001596    21.414343    9820.0629 
   88000    1.7858973    14.787623     16.57352   -3.9919838    18.726352  0.053255002  0.019096214     1.190747    21.424845    9834.5176 
   89000    1.8114749     14.77717    16.588645   -3.9998107    18.726009  0.050971759 -0.074416046    1.2078009    21.409103    9812.8556 
   90000    1.7875802    14.782421    16.570002   -3.9853735    18.718129  0.049665751 -0.029899558    1.1918691    21.429078    9840.3486 
   91000    1.8105825    14.759071    16.569654   -4.0036064    18.717952  0.044725545   0.17199219    1.2072059    21.399258    9799.3248 
   92000      1.77146    14.791056    16.562516   -3.9729663    18.717183  0.046838688  -0.16973049     1.181121    21.449595    9868.6394 
   93000    1.8027916    14.768503    16.571294   -4.0013262    18.723635  0.046193889  0.080138428    1.2020113    21.393054    9790.8041 
   94000    1.7884006    14.782145    16.570546   -3.9929793    18.725439  0.049685896  -0.03277157    1.1924161    21.413448     9818.832 
   95000    1.8199966    14.749851    16.569848    -4.017797    18.719363  0.048285345  -0.16877215    1.2134827    21.406406    9809.1474 
   96000    1.7987947    14.765664    16.564458    -4.012795    18.729456  0.049002347  0.067071441    1.1993464    21.410013    9814.1073 
   97000    1.8108382    14.786981     16.59782   -3.9861833    18.725497  0.047667342 -0.044433781    1.2073764    21.445198    9862.5714 
   98000    1.7919756    14.799568    16.591543   -3.9869811    18.738747  0.047801523 -0.051786713    1.1947998    21.428812     9839.981 
   99000    1.7892312    14.765755    16.554986     -4.00041    18.722609  0.043556391 -0.015456521    1.1929699    21.407349    9810.4447 
  100000    1.7954179    14.797996    16.593414    -3.979932    18.728922  0.049005854  0.069830344    1.1970949    21.444997    9862.2942 
  101000     1.835809     14.80488    16.640689   -3.9748695    18.732233  0.047516599 -0.081239018    1.2240257    21.457984    9880.2226 
  102000     1.782424    14.807797    16.590221   -3.9782424    18.737763  0.048276294  0.038971523    1.1884312    21.448613    9867.2849 
  103000    1.8131185    14.765823    16.578942   -4.0026706    18.718781  0.049713106 -0.032076381    1.2088967    21.398062    9797.6813 
  104000     1.776898    14.753015    16.529913   -4.0109806    18.716423  0.047573041 -0.019814356    1.1847468    21.391279    9788.3671 
  105000    1.8233439    14.768083    16.591427   -3.9980781    18.718794  0.047367308 -0.062317042    1.2157146    21.413092    9818.3425 
  106000    1.7877604    14.779831    16.567592   -4.0006715    18.742751  0.037752135 -0.015604723    1.1919893    21.406087    9808.7086 
  107000    1.7892552    14.722825     16.51208    -4.032826    18.707959  0.047692079  0.038802446     1.192986    21.360129    9745.6674 
  108000    1.7970116    14.778584    16.575595   -3.9985411    18.731211  0.045914121 -0.076506535    1.1981575    21.417974    9825.0593 
  109000     1.814012    14.803543    16.617555   -3.9877316    18.742629  0.048645063   0.10319809    1.2094925    21.430766    9842.6731 
  110000    1.7971746    14.776151    16.573326   -3.9924669    18.720394  0.048224367   0.02275085    1.1982662     21.43552    9849.2255 
  111000    1.8355102    14.749715    16.585225    -4.012553    18.714433  0.047834443  -0.15840801    1.2238265    21.404865    9807.0301 
  112000     1.769214    14.767776     16.53699   -3.9987926    18.720874   0.04569453  -0.12295142    1.1796234    21.417581    9824.5186 
  113000    1.8156431    14.753399    16.569042   -4.0184881    18.730234  0.041652757  -0.22117434      1.21058    21.386615    9781.9661 
  114000    1.7904269    14.771815    16.562242   -4.0024513    18.729084   0.04518229 -0.036375737    1.1937671    21.431787    9844.0798 
  115000    1.8342845    14.780269    16.614554    -4.000972       18.738  0.043241193  0.027214854    1.2230092    21.417015     9823.739 
  116000    1.7968887    14.771554    16.568442   -3.9976841    18.723622  0.045616224 -0.043157677    1.1980756    21.423343    9832.4493 
  117000    1.8018484     14.76517    16.567018   -4.0248231    18.743022  0.046971021 -0.057388226    1.2013824    21.385151     9779.957 
  118000    1.7938919    14.781924    16.575816   -3.9848996    18.723544  0.043279525 -0.079655402    1.1960775    21.443811    9860.6587 
  119000    1.8230083    14.792632    16.615641   -3.9826556    18.727159  0.048129056  0.010497713    1.2154908    21.451298    9870.9904 
  120000    1.8071267    14.765816    16.572943   -3.9991396    18.717468  0.047487212    0.1007134    1.2049017    21.407648    9810.8552 
  121000    1.7608252    14.748616    16.509441   -4.0162967    18.714112  0.050800045  0.020769077    1.1740302    21.405756    9808.2545 
  122000    1.7917825     14.75453    16.546312   -4.0174969    18.727285   0.04474197 -0.043134443     1.194671    21.371899    9761.7872 
  123000    1.7973758    14.764486    16.561862   -4.0202768    18.738083  0.046680125  0.065242619    1.1984003    21.404749    9806.8702 
  124000    1.8139497    14.805943    16.619893   -3.9747372    18.732089   0.04859116   0.19309145     1.209451    21.443525    9860.2637 
  125000    1.7835089    14.802307    16.585816   -3.9853852    18.735346  0.052346553  -0.16295772    1.1891546    21.444156    9861.1347 
  126000    1.7680949    14.783713    16.551808   -3.9848396    18.723384  0.045168641 -0.053047649    1.1788773    21.408979    9812.6848 
  127000    1.7919465    14.759144     16.55109   -4.0059259    18.718375  0.046694823  0.053654033    1.1947804     21.41169    9816.4135 
  128000    1.8220897    14.754366    16.576455   -4.0038311    18.711721  0.046476176  0.046096109    1.2148783    21.398718    9798.5829 
  129000    1.7716026    14.772089    16.543692   -3.9936776    18.720741  0.045025693  -0.16039745     1.181216    21.424981    9834.7046 
  130000    1.8161604    14.768786    16.584946   -4.0040187    18.726576  0.046228585 0.0047875131    1.2109249    21.393428    9791.3173 
  131000    1.7856028    14.808815    16.594417   -3.9682301     18.73092  0.046124925 -0.093088792    1.1905507     21.45612    9877.6486 
  132000    1.8112361    14.805746    16.616982    -3.979183    18.741303  0.043625804    0.1598768    1.2076417    21.412838    9817.9919 
  133000    1.7731598    14.788941    16.562101   -3.9821061    18.726446  0.044601051 -0.027655786    1.1822543    21.439809    9855.1391 
  134000    1.8174849    14.782394    16.599879   -3.9914092    18.726978  0.046825157   0.14507738    1.2118081    21.426085    9836.2255 
  135000    1.7882864    14.761825    16.550111    -3.999574     18.71254  0.048859091  0.021978618    1.1923399    21.437099    9851.4025 
  136000    1.7961366    14.764544    16.560681   -4.0297739     18.74234  0.051978306   0.16308524    1.1975741    21.363328    9750.0473 
  137000    1.7812349    14.777636    16.558871   -3.9943644    18.724368  0.047632425 -0.008045957    1.1876384    21.429385    9840.7709 
  138000    1.8062567    14.793562    16.599819   -3.9912935    18.738907  0.045948796  0.071365576    1.2043217    21.399951    9800.2764 
  139000    1.7581291    14.804181     16.56231   -3.9712983    18.731756  0.043723343 -0.049914136    1.1722326    21.452979    9873.3113 
  140000    1.8302838     14.75991    16.590194   -4.0147452    18.724722  0.049933134  0.029420517    1.2203418    21.381865    9775.4504 
  141000    1.7896633    14.784062    16.573725   -3.9840316    18.716069  0.052024663  -0.17243392     1.193258    21.442167    9858.3911 
  142000    1.8135942    14.776604    16.590198   -3.9941706    18.721874  0.048899998  0.069211324    1.2092139    21.398045    9797.6583 
  143000    1.7758109    14.806532    16.582343   -3.9725603    18.730604  0.048488676 -0.086362447     1.184022    21.452328    9872.4127 
  144000    1.8040511    14.793557    16.597609   -3.9876216    18.732949  0.048230202   0.12225344    1.2028511    21.423055     9832.053 
  145000    1.7802445    14.786265    16.566509   -3.9960276    18.730866  0.051426455 -0.082915482     1.186978    21.421625    9830.0849 
  146000    1.7681212    14.809963    16.578084   -3.9777171    18.736499  0.051181234  0.068295597    1.1788948     21.41919     9826.732 
  147000    1.7882385    14.800901     16.58914    -3.976363    18.732381  0.044883625  0.062692683     1.192308    21.441668    9857.7019 
  148000    1.8258981    14.804107    16.630005   -3.9752415    18.731689  0.047659773  0.050156692    1.2174176    21.442497    9858.8464 
  149000    1.7849869    14.802208    16.587195   -3.9618632    18.716548  0.047523608   0.12716106    1.1901401    21.457529    9879.5944 
  150000    1.7957313    14.782995    16.578726   -4.0135398     18.74404  0.052494425 -0.039262197    1.1973038    21.417146    9823.9194 
  151000    1.8025997    14.755584    16.558184   -4.0093536    18.715154  0.049783953  0.040075395    1.2018834    21.409119    9812.8772 
  152000    1.7821914    14.797084    16.579276   -3.9901103    18.739897  0.047297726 -0.074864794    1.1882761    21.440994    9856.7735 
  153000    1.8244603    14.809314    16.633774   -3.9726869     18.73515  0.046851372 -0.067817309    1.2164589    21.441669     9857.704 
  154000    1.7791175    14.818315    16.597433   -3.9692905    18.739208  0.048397153 -0.062066632    1.1862266    21.436643    9850.7734 
  155000    1.7707051    14.803634    16.574339   -3.9734158    18.729687  0.047362372  -0.14106783    1.1806176    21.445632    9863.1708 
  156000    1.8314095    14.795865    16.627274   -3.9896312    18.734356  0.051140176  0.037678735    1.2210923    21.436388     9850.422 
  157000     1.801596    14.798787    16.600383   -3.9773518    18.721607  0.054532596  -0.14016282    1.2012141    21.455109    9876.2523 
  158000    1.8002965    14.789425    16.589722   -3.9809725    18.719581  0.050816802 -0.0034105738    1.2003477    21.419057    9826.5497 
  159000    1.7662546    14.764233    16.530487   -3.9984003    18.712494  0.050139449  0.076175303    1.1776503     21.40107    9801.8145 
  160000    1.7908065    14.797821    16.588628   -3.9775088    18.728514  0.046816037 -0.011017222    1.1940203     21.44316    9859.7607 
  161000    1.8005966    14.793958    16.594555   -3.9865942     18.73069  0.049862517   0.10972388    1.2005478    21.422869    9831.7966 
  162000    1.7692712      14.7729    16.542171   -4.0070524    18.731757  0.048195532 -0.054404844    1.1796616    21.398384     9798.124 
  163000     1.832258    14.766859    16.599117   -4.0080308    18.723169  0.051721181   0.11877949     1.221658    21.388643    9784.7491 
  164000    1.7888731    14.808627      16.5975   -3.9769334    18.735961  0.049598851 -0.022804637    1.1927311    21.467386     9893.216 
  165000    1.8328909    14.786921    16.619812   -3.9890914    18.726441    0.0495713 -0.084392436      1.22208     21.42637    9836.6181 
  166000    1.7883976    14.785346    16.573744   -3.9778084    18.717695  0.045459817 -0.079119705    1.1924141    21.460574    9883.8011 
  167000    1.8092822    14.772078     16.58136   -4.0056762    18.726964  0.050790067   0.13100266    1.2063389    21.383206    9777.2894 
  168000    1.7550972    14.778741    16.533838   -3.9885234    18.723184  0.044080194   -0.2308405     1.170211    21.438867    9853.8398 
  169000    1.8084778    14.766669    16.575146   -4.0112553    18.730093  0.047830549  0.046484743    1.2058026    21.387335    9782.9545 
  170000    1.7721294     14.79097    16.563099   -3.9897124     18.73068  0.050002099  0.060095242    1.1815673    21.422681     9831.538 
  171000    1.8355112    14.768418     16.60393   -4.0099563    18.734354  0.044021089 -0.061127497    1.2238271    21.399922    9800.2362 
  172000    1.7819956    14.783307    16.565303    -3.985568    18.720699   0.04817601  0.053303881    1.1881456    21.445926    9863.5768 
  173000     1.805759    14.786488    16.592247   -3.9999905    18.737411  0.049067392 -0.043700478    1.2039898    21.422193     9830.866 
  174000     1.793797    14.757673     16.55147   -4.0110007    18.719056  0.049617942  -0.25927057    1.1960142    21.425218    9835.0314 
  175000    1.8073296    14.750011     16.55734   -4.0303301    18.734451  0.045889712  0.064424166    1.2050371    21.375852    9767.2053 
  176000    1.7842053    14.787817    16.572022   -3.9953774    18.734501  0.048693401  0.042228356    1.1896189    21.418602    9825.9232 
  177000    1.8049032    14.780608    16.585512   -3.9978216    18.727537  0.050893123 -0.021993729    1.2034192    21.427227    9837.7978 
  178000    1.7872251    14.761231    16.548457   -4.0012316     18.71444  0.048022795 -0.020283381    1.1916323    21.425283    9835.1204 
  179000    1.8128001    14.766183    16.578983   -4.0015273    18.723587  0.044122502   0.12895168    1.2086845    21.384138    9778.5678 
  180000    1.7736741    14.793845    16.567519   -3.9789293    18.729999  0.042775154  0.010412935    1.1825972    21.444174    9861.1587 
  181000    1.8249363    14.779593    16.604529   -4.0084173    18.738327  0.049682751  0.020243292    1.2167763    21.390037    9786.6627 
  182000     1.765301     14.79445    16.559751   -3.9952968     18.74062  0.049126688  -0.22879643    1.1770145    21.446872    9864.8815 
  183000    1.8061467    14.778418    16.584565   -3.9949844     18.72644  0.046962616   0.10316494    1.2042483    21.415875    9822.1705 
  184000     1.817147    14.747411    16.564558    -4.010405    18.714517  0.043298898  -0.12918663    1.2115828    21.403816    9805.5881 
  185000    1.7720622    14.761643    16.533705   -4.0106556    18.724138  0.048160803  0.047828754    1.1815225    21.374984    9766.0146 
  186000    1.8042921    14.759146    16.563438   -4.0220493    18.736259  0.044935923  0.041202786    1.2030118    21.390584    9787.4138 
  187000    1.7860864    14.777445    16.563532   -3.9978646    18.728963  0.046346618 -0.058566994    1.1908731    21.416494    9823.0223 
  188000    1.8150471     14.76925    16.584297   -4.0188558    18.743812  0.044293268  0.092747499    1.2101827    21.374372    9765.1762 
  189000    1.7733866     14.77654    16.549926    -3.994242     18.72235  0.048431408   0.10553902    1.1824055     21.40816     9811.559 
  190000    1.7948851    14.789808    16.584693   -3.9886944    18.730628    0.0478751    0.2179046    1.1967397     21.41281    9817.9539 
  191000    1.8122127    14.766579    16.578792   -4.0220135    18.740546  0.048046332  -0.10224602    1.2082928    21.398166    9797.8246 
  192000    1.7877654    14.749854    16.537619   -4.0201866    18.722678   0.04736236  0.027269677    1.1919926     21.39615    9795.0557 
  193000    1.8103919    14.784879    16.595271   -3.9976183    18.734691  0.047806248  0.095287342    1.2070788    21.391033    9788.0294 
  194000    1.8072898     14.75764     16.56493   -4.0089632    18.722155  0.044448307  0.021078397    1.2050105    21.429871    9841.4399 
  195000    1.7877015    14.743338     16.53104   -4.0293244     18.72287  0.049792636  0.069421849      1.19195    21.382162    9775.8566 
  196000    1.8008773    14.775419    16.576296   -4.0000609     18.72594  0.049540021   -0.0196129     1.200735    21.414547    9820.3437 
  197000    1.8051873    14.797096    16.602283   -3.9659262    18.717262  0.045760003 -0.064835122    1.2036087    21.435931    9849.7919 
  198000    1.7885045    14.754983    16.543487   -4.0042896    18.712606  0.046666572   0.16659249    1.1924854    21.392059    9789.4387 
  199000    1.7830798    14.777077    16.560157   -4.0053852    18.735342  0.047120375   0.15564263    1.1888685     21.40386    9805.6482 
  200000    1.8219919    14.806578     16.62857   -3.9764431    18.735393  0.047628737 0.0086988727    1.2148131    21.442946    9859.4655 
  201000    1.8017109    14.827799     16.62951   -3.9605832    18.735309  0.053073052  0.027098341    1.2012908    21.470722    9897.8287 
  202000    1.8037866    14.784122    16.587908   -3.9961256    18.731037  0.049209797  -0.16813262    1.2026747    21.429055    9840.3161 
  203000    1.7903263    14.737081    16.527408   -4.0353524    18.729964  0.042470003  -0.05823681    1.1937001    21.382975    9776.9728 
  204000    1.8008844     14.74331    16.544195   -4.0343564    18.730194  0.047472218 -0.071477709    1.2007397    21.380806    9773.9975 
  205000    1.8187384    14.770838    16.589576   -4.0032609     18.72617  0.047928721 -0.018451787    1.2126439     21.43546    9849.1423 
  206000    1.8196738    14.798934    16.618608   -3.9770438    18.726628  0.049349362 -0.088040901    1.2132675    21.455059    9876.1827 
  207000    1.8024963    14.753362    16.555858   -4.0243122    18.723978  0.053695697   0.10582232    1.2018145    21.391007    9787.9938 
  208000     1.790323    14.745288    16.535611   -4.0208019    18.715814  0.050275626  0.033291893    1.1936979    21.391587    9788.7896 
  209000    1.8014184    14.786089    16.587507   -4.0015682    18.736014  0.051643313  0.049238927    1.2010958    21.424689    9834.3035 
  210000    1.8055603    14.785081    16.590641   -3.9916998      18.7309  0.045880606  -0.10984472    1.2038573    21.426511     9836.812 
  211000    1.7722314    14.779065    16.551296    -4.003429    18.737518  0.044976406  -0.13513438    1.1816353     21.41408    9819.7013 
  212000    1.8291561    14.757555    16.586711   -4.0107126    18.720932  0.047334841    0.1030623    1.2195899    21.383093    9777.1344 
  213000    1.7943876    14.775818    16.570206   -3.9909609    18.719983  0.046796533 -0.025210877    1.1964079    21.442034    9858.2067 
  214000    1.8147051    14.750995      16.5657   -4.0174643    18.717932  0.050527795  0.055790546    1.2099546    21.379494    9772.1978 
  215000    1.7950205    14.745063    16.540083   -4.0174908    18.716145  0.046409204  0.037053632    1.1968299    21.410695     9815.045 
  216000    1.8220367    14.764545    16.586582   -4.0286691    18.742288  0.050926075   0.26100385     1.214843     21.38188     9775.471 
  217000    1.7808973    14.793861    16.574758   -3.9753216     18.71565  0.053533035  -0.19284622    1.1874133    21.458939    9881.5424 
  218000    1.8146096    14.783272    16.597881   -3.9904533    18.722659  0.051066348   0.18255907     1.209891    21.407725    9810.9615 
  219000    1.8039266    14.754668    16.558595   -4.0178233    18.723639   0.04885237  -0.17611608    1.2027681    21.410248    9814.4298 
  220000    1.7952093    14.751434    16.546643   -4.0350217     18.73395  0.052505672 -0.00068134575    1.1969558    21.375739    9767.0499 
  221000    1.7726231    14.789615    16.562238   -3.9913389    18.731535  0.049418704  0.034010289    1.1818965    21.408335    9811.8002 
  222000    1.7932243    14.795962    16.589186   -3.9859096    18.732571  0.049300833  -0.11082805    1.1956323     21.43921     9854.312 
  223000    1.8187596    14.774266    16.593025   -4.0018202    18.729403  0.046682895  -0.18365399     1.212658    21.422572    9831.3879 
  224000    1.7990753    14.740752    16.539827   -4.0298172    18.720244  0.050325307  0.043566399    1.1995335    21.393232    9791.0486 
  225000    1.8061848     14.75805    16.564234   -4.0293424     18.73614  0.051252334   0.10377708    1.2042738    21.361249    9747.2017 
  226000    1.8169138    14.813264    16.630177   -3.9572668     18.72267  0.047860891  -0.22951239    1.2114273     21.48444    9916.8131 
  227000    1.8232686    14.834393    16.657662   -3.9456929    18.730265  0.049821227  0.071350869    1.2156644    21.478805    9909.0116 
  228000    1.7972019    14.795469    16.592671   -3.9706553    18.719691  0.046433052  -0.17522679    1.1982844    21.469349    9895.9298 
  229000    1.8129049    14.760765     16.57367     -3.99658    18.710442  0.046903212  0.069881106    1.2087543    21.419769    9827.5287 
  230000    1.7967581    14.774229    16.570987   -4.0093776    18.737893  0.045713416  0.065815041    1.1979885    21.411787    9816.5464 
  231000    1.8004843     14.77444    16.574924    -3.994062     18.72231  0.046191884   0.13233329    1.2004729    21.408326    9811.7869 
  232000    1.8015379    14.804286    16.605823   -3.9737848    18.733345  0.044724887  -0.00873407    1.2011754    21.431982    9844.3498 
  233000    1.8073117     14.76772    16.575032   -3.9989316    18.720152  0.046499779 0.0065201843    1.2050251     21.42236    9831.0967 
  234000    1.7748319    14.762269    16.537101   -4.0124538    18.728384  0.046339105   0.12059677    1.1833692     21.40023    9800.6597 
  235000    1.8075249    14.793901    16.601426   -3.9962152    18.742189  0.047927116 -0.070652651    1.2051673     21.42668    9837.0453 
  236000    1.7915388    14.794077    16.585615   -3.9977856     18.74179  0.050072643 -0.079487487    1.1945085    21.423971    9833.3138 
  237000     1.775371    14.748543    16.523914    -4.032427    18.729002  0.051968004  0.010207095    1.1837286    21.367536    9755.8097 
  238000    1.7846034    14.761797      16.5464   -3.9913987    18.709415  0.043780595 -0.047923369    1.1898843    21.429144    9840.4386 
  239000    1.7985818    14.799665    16.598247    -3.977923    18.733234  0.044354689  0.021470114    1.1992044    21.451776    9871.6507 
  240000    1.7993439    14.808347    16.607691    -3.969863    18.732388  0.045821893 -0.024319825    1.1997126    21.440175    9855.6434 
  241000     1.782149    14.766128    16.548277   -4.0011726     18.72362  0.043680715   0.28261869    1.1882479    21.386841    9782.2757 
  242000    1.7864854    14.780237    16.566722   -4.0065182     18.74112  0.045635303   0.10956454    1.1911392    21.414461     9820.225 
  243000     1.820244    14.798315    16.618559   -3.9910325    18.737388  0.051959311  0.077018548    1.2136477    21.420032    9827.8907 
  244000    1.8097479    14.814721    16.624469    -3.961869    18.729336  0.047254306  -0.14003283    1.2066494    21.471636    9899.0929 
  245000    1.8248615     14.76016    16.585021   -4.0133525    18.727451  0.046061149   -0.1927105    1.2167265    21.395165    9793.7029 
  246000     1.780769     14.75882    16.539589   -4.0079962    18.721297  0.045519049  -0.16945642    1.1873278     21.40722    9810.2672 
  247000    1.8115371    14.775436    16.586973   -4.0003396     18.72889   0.04688517   0.21715455    1.2078424    21.424708    9834.3297 
  248000     1.804182    14.767877    16.572059   -4.0013302    18.727786   0.04142119   0.02716946    1.2029384    21.415565    9821.7439 
  249000    1.7973339    14.716436    16.513769   -4.0536571    18.721981  0.048111609  0.013435247    1.1983724     21.35166      9734.08 
  250000    1.8072473    14.737763     16.54501   -4.0223981    18.711508  0.048652267 -0.035963862    1.2049821    21.404821    9806.9686 
  251000    1.8141012    14.774125    16.588226   -4.0091835    18.732661  0.050646824 0.0073669353     1.209552     21.42017    9828.0815 
  252000    1.7737528     14.79665    16.570402   -3.9760989    18.727232  0.045516111   0.08119972    1.1826497    21.447765    9866.1139 
  253000    1.8099631    14.786456    16.596419   -4.0035562    18.738245  0.051767169  0.058457096    1.2067929    21.411593    9816.2805 
  254000    1.7807165    14.797562    16.578279   -3.9724054    18.725315   0.04465285  -0.27397901    1.1872928    21.444833     9862.068 
  255000    1.8204815    14.789243    16.609724   -3.9817428    18.728289  0.042696994  -0.13219293    1.2138061    21.433385     9846.283 
  256000    1.7725763    14.797812    16.570388   -3.9949313    18.745594  0.047149636  -0.27614746    1.1818653    21.454246      9875.06 
  257000    1.8111921    14.758433    16.569626   -4.0212443    18.731576  0.048101353   0.20702151    1.2076124    21.355643    9739.5289 
  258000    1.7716327    14.776249    16.547882   -3.9883921     18.71819  0.046451406 -0.073941435    1.1812361    21.449023    9867.8502 
  259000    1.8227097    14.769549    16.592259   -4.0037213    18.731169  0.042102017   0.22437056    1.2152917    21.407266    9810.3303 
  260000     1.772543    14.791055    16.563598   -3.9780329    18.720399  0.048688394  0.085649845    1.1818431    21.435651    9849.4055 
  261000    1.8263313    14.791675    16.618006   -3.9864655    18.728848  0.049292135 -0.088880352    1.2177064    21.419015    9826.4918 
  262000    1.7851905    14.779236    16.564427   -3.9918169    18.725182  0.045871613  -0.27013548    1.1902758    21.450288    9869.5956 
  263000    1.7889673    14.784797    16.573764   -3.9997743    18.739854  0.044717009  0.012946338     1.192794    21.413095    9818.3463 
  264000    1.8188102    14.791066    16.609877    -3.993606    18.738442  0.046230291   0.17066909    1.2126917    21.408284    9811.7293 
  265000    1.7788441    14.843657    16.622502   -3.9417309    18.742874  0.042514355  0.033831934    1.1860443    21.492887    9928.5138 
  266000    1.7935036    14.791365    16.584869   -3.9828095    18.728265  0.045910211   0.25308596    1.1958185    21.424513    9834.0605 
  267000    1.8142351    14.736779    16.551014   -4.0320429    18.724182  0.044640129  0.058888007    1.2096412    21.364145    9751.1664 
  268000    1.7964126    14.784916    16.581328   -4.0059208    18.743556  0.047280704  0.067013519    1.1977581    21.411257    9815.8174 
  269000    1.8102892    14.787606    16.597896   -3.9890469    18.729771  0.046882331 0.0057238114    1.2070103    21.433767    9846.8086 
  270000    1.7902295    14.761637    16.551866   -4.0046466    18.722154  0.044129243  -0.17863877    1.1936355    21.403968    9805.7966 
  271000      1.78312    14.765614    16.548734   -4.0037933    18.723662  0.045745778 -0.0040739658    1.1888953    21.398482     9798.259 
  272000    1.7995781    14.796001    16.595579   -3.9857296    18.732373  0.049358234   0.09044097    1.1998687    21.419196    9826.7411 
  273000    1.8176597    14.800321    16.617981   -3.9751914    18.728518  0.046994542 -0.018862758    1.2119246    21.469538    9896.1916 
  274000     1.803409    14.809502    16.612911   -3.9720211    18.732197  0.049326189 -0.014066684     1.202423    21.426979    9837.4572 
  275000    1.8013049    14.763071    16.564376   -4.0143318    18.732989  0.044413662 -0.0018877814    1.2010201    21.394958    9793.4188 
  276000    1.7729172    14.761461    16.534378   -4.0070836    18.721294  0.047250699  0.075015144    1.1820926    21.403669     9805.385 
  277000    1.8236993    14.765561     16.58926   -4.0177926    18.735852  0.047502231    0.1391261    1.2159515    21.397161    9796.4435 
  278000    1.7834266    14.802615    16.586042   -3.9734313    18.724838  0.051208497 -0.099796525    1.1890997    21.461384    9884.9205 
  279000    1.8186864    14.808125    16.626812   -3.9637125    18.725379   0.04645904  0.088396239    1.2126091     21.43348    9846.4135 
  280000    1.8109174    14.784037    16.594954   -3.9757793    18.716046  0.043770417 -0.016135602    1.2074292    21.449962    9869.1466 
  281000    1.8191939     14.78029    16.599484   -4.0050295    18.738361  0.046958653  0.054488725    1.2129475     21.42081    9828.9621 
  282000    1.7628025     14.77698    16.539783   -4.0151491    18.742934  0.049194783   0.23151852    1.1753486    21.393793    9791.8183 
  283000    1.8006579    14.765497    16.566155   -4.0178937     18.73393  0.049460858 0.0076561722    1.2005887     21.39838    9798.1184 
  284000    1.8322022    14.791705    16.623907   -3.9839593    18.728297  0.047366907 -0.074819559    1.2216208    21.449874    9869.0246 
  285000    1.8231313    14.774276    16.597407   -3.9995223    18.727647  0.046151178 -0.015010368    1.2155728    21.427187    9837.7427 
  286000    1.7965935    14.757705    16.554299   -4.0182836    18.728196  0.047793213 -0.065839764    1.1978787    21.374662    9765.5744 
  287000    1.7826983    14.777821     16.56052   -3.9873066    18.716863  0.048265106   0.16263793    1.1886141    21.426543    9836.8562 
  288000    1.7935802     14.81063     16.60421   -3.9589173    18.722479  0.047068403 -0.040018054    1.1958696    21.451662    9871.4932 
  289000    1.8017494    14.758993    16.560742   -3.9970816    18.703446  0.052627922 -0.029828432    1.2013164     21.41969      9827.42 
  290000     1.808729    14.797792    16.606521   -3.9788508    18.734217  0.042425798  0.097213124    1.2059701    21.443681    9860.4792 
  291000    1.7890174    14.806169    16.595186   -3.9740067    18.732039  0.048136359  0.070398071    1.1928274    21.451419     9871.158 
  292000    1.7996827    14.758166    16.557849   -4.0040819    18.710378  0.051869484 -0.053146097    1.1999385    21.388639    9784.7432 
  293000    1.7861707    14.742593    16.528764   -4.0110606     18.70786  0.045792957   0.11143711    1.1909293     21.38536     9780.244 
  294000    1.7879581    14.789696    16.577654   -3.9915696     18.73393  0.047335571  0.092027688    1.1921211     21.42477    9834.4138 
  295000    1.7866207    14.771945    16.558565   -4.0084749    18.729698  0.050721704   0.13873304    1.1912294    21.402077    9803.1983 
  296000     1.797934    14.784039    16.581974   -3.9909071    18.732014  0.042932816 -0.030309185    1.1987725    21.442946    9859.4645 
  297000    1.7963689    14.772723    16.569092   -4.0032673    18.730712  0.045278086   0.17769376     1.197729    21.412692    9817.7912 
  298000    1.8110139    14.774107    16.585121    -3.990887    18.720271  0.044722844  0.087132145    1.2074935    21.413156    9818.4303 
  299000    1.7790546     14.79262    16.571675   -3.9863106    18.729633  0.049297834  0.034810169    1.1861847    21.429827    9841.3796 
  300000    1.7714743     14.73622    16.507695   -4.0232798    18.709707   0.04979308    0.1399227    1.1811305    21.381019    9774.2897 
  301000    1.7914203     14.76123    16.552651   -4.0176697    18.727535  0.051365494   0.13255876    1.1944295    21.394897     9793.335 
  302000     1.804595    14.798399    16.602994   -3.9893961    18.740918  0.046877342  -0.11434191    1.2032138    21.438509    9853.3466 
  303000    1.8027715     14.76783    16.570602   -4.0106375    18.730481  0.047986639 -0.038062725    1.2019979     21.41461    9820.4298 
  304000    1.7787622    14.775206    16.553968   -4.0026638     18.72918  0.048690018  0.079427018    1.1859897    21.392562     9790.128 
  305000    1.7908994    14.810282    16.601181   -3.9792299    18.739247  0.050264587  0.079122347    1.1940822    21.450068    9869.2921 
  306000    1.8227263    14.796226    16.618952   -3.9650061     18.71373  0.047502059   -0.1472981    1.2153028    21.460538     9883.752 
  307000    1.8290255    14.744528    16.573554   -4.0215538    18.720913  0.045169606  0.014425943    1.2195027    21.390397    9787.1564 
  308000    1.7892852    14.768568    16.557853   -4.0073459    18.728188   0.04772656  0.084594246    1.1930059    21.406885     9809.806 
  309000    1.8225503    14.764868    16.587418   -4.0221606    18.737092  0.049936672   0.16612224    1.2151854    21.377938    9770.0648 
  310000    1.7962877     14.75243    16.548718   -4.0039625    18.710822  0.045570503  -0.14711847    1.1976748    21.429657    9841.1451 
  311000    1.8199928    14.757946    16.577939   -4.0093675    18.720416  0.046897793   0.24294408    1.2134802    21.377244    9769.1137 
  312000    1.7702309    14.744554    16.514785   -4.0171311    18.715573  0.046111735  -0.22842702    1.1803014    21.418333    9825.5533 
  313000    1.8040099    14.740412    16.544422   -4.0198133    18.711838  0.048386964   0.09776435    1.2028236    21.371806    9761.6599 
  314000    1.7887615     14.78849    16.577252   -3.9816253    18.724622  0.045494075  0.041778209    1.1926567    21.431845      9844.16 
  315000    1.7941041    14.800573    16.594677   -3.9825622    18.733117  0.050017862 -0.005096846    1.1962189    21.425884    9835.9481 
  316000    1.7841704    14.799993    16.584163   -3.9897276    18.737957  0.051762823  0.091595917    1.1895956    21.419387    9827.0039 
  317000    1.8163212    14.765175    16.581496   -4.0095565    18.722384  0.052347004  0.020235506    1.2110322     21.40368    9805.4001 
  318000     1.774021    14.743434    16.517455   -4.0295778    18.724958  0.048053983 -0.032459852    1.1828286    21.389671    9786.1597 
  319000    1.7803744    14.772633    16.553007   -3.9974554    18.723449  0.046639048   0.11588568    1.1870646    21.404366    9806.3439 
  320000    1.7638198     14.83429    16.598109   -3.9528237    18.742837  0.044275797  0.065129374    1.1760268    21.471763    9899.2683 
  321000    1.8123575    14.781395    16.593753   -4.0107111    18.742483  0.049623143 -0.029534776    1.2083894    21.424988    9834.7145 
  322000    1.8109655    14.769265    16.580231   -4.0108648    18.730942   0.04918873  -0.13362079    1.2074613    21.416995    9823.7122 
  323000     1.780884    14.758007    16.538891   -4.0157736    18.724646  0.049134797 -0.062239348    1.1874044    21.394749    9793.1317 
  324000    1.7940944    14.769088    16.563182   -4.0061285    18.733945  0.041270877   0.17784173    1.1962124    21.391586    9788.7887 
  325000     1.799364    14.761383    16.560747   -4.0055333    18.718871   0.04804544  -0.12407397     1.199726    21.421162    9829.4474 
  326000    1.8099607    14.802432    16.612393   -3.9806173     18.72891  0.054139532  0.039509875    1.2067913    21.421162    9829.4472 
  327000    1.7843518    14.801908     16.58626    -3.961808    18.713342  0.050373807  0.078541858    1.1897166    21.448872     9867.642 
  328000    1.8149236    14.777179    16.592103   -3.9901738    18.719602  0.047751459 -0.00027568169    1.2101003    21.424021    9833.3826 
  329000    1.8016058     14.80121    16.602815   -3.9621836    18.716158  0.047235665  0.056734784    1.2012207    21.448685    9867.3832 
  330000     1.780962     14.77648    16.557442   -3.9978972    18.724755  0.049622938   0.12782661    1.1874564    21.400082    9800.4562 
  331000    1.7560569    14.749899    16.505956    -4.016848    18.715796  0.050951062 -0.038658113     1.170851    21.391781    9789.0559 
  332000     1.807823    14.756062    16.563885   -4.0272385       18.735  0.048300976  -0.11777407     1.205366    21.376313    9767.8363 
  333000    1.8072352    14.761979    16.569214   -4.0064594    18.719392  0.049046194  -0.16945256    1.2049741    21.430102    9841.7585 
  334000    1.8242064    14.786758    16.610964   -3.9936842    18.732939   0.04750335   0.09000375    1.2162896    21.403158    9804.6828 
  335000    1.7805986    14.786903    16.567502   -3.9856596    18.724432  0.048131118 -0.045862366    1.1872142    21.441591    9857.5967 
  336000    1.8094639    14.758884    16.568348   -4.0229332    18.735888  0.045928597 -0.0062742818    1.2064601    21.382718    9776.6199 
  337000     1.783222    14.778934    16.562156   -4.0025051     18.73519   0.04624906  -0.15820155    1.1889633    21.422226    9830.9115 
  338000    1.8202719     14.78729    16.607562   -3.9930968    18.731555  0.048831821   0.10412562    1.2136663    21.399314    9799.4021 
  339000    1.8136347    14.783015    16.596649   -3.9913801    18.727721  0.046673249  -0.18815349     1.209241    21.432311     9844.802 
  340000    1.7941802    14.764138    16.558318   -4.0265516    18.749124  0.041565152  -0.05552365    1.1962697    21.394762    9793.1495 
  341000      1.79637    14.734487    16.530857   -4.0341367    18.721821  0.046802694   0.13234242    1.1977297    21.389668    9786.1553 
  342000    1.8252587    14.781016    16.606275   -3.9839203    18.725201  0.039735302  -0.13641023    1.2169913    21.452015    9871.9806 
  343000    1.8097277    14.770756    16.580483   -4.0023903    18.729858  0.043287751  -0.16997675     1.206636    21.411136     9815.651 
  344000    1.8019679    14.742947    16.544915    -4.040501    18.735516  0.047931756 0.0054614856    1.2014621    21.368769    9757.4991 
  345000    1.7990482    14.791999    16.591047   -3.9706625    18.715472  0.047188818 -0.052677053    1.1995154    21.437876     9852.473 
  346000    1.8009053    14.795988    16.596894   -3.9893173    18.735939   0.04936649  0.089399787    1.2007536    21.430228     9841.932 
  347000    1.7818272    14.774411    16.556239   -3.9968249    18.726868  0.044368014   0.04839006    1.1880333    21.410247    9814.4295 
  348000    1.8181545    14.770704    16.588858   -4.0074557     18.73307  0.045089669   0.18687259    1.2122545    21.408168    9811.5697 
  349000    1.8184649    14.792054    16.610519   -3.9832458    18.725234  0.050066149  0.098798435    1.2124615    21.452017    9871.9834 
  350000    1.7935144    14.758257    16.551772   -4.0041235    18.712178  0.050202382   0.28804753    1.1958257    21.385628     9780.612 
  351000    1.7929778    14.768116    16.561094   -4.0053495    18.725061  0.048404815 -0.099963825     1.195468    21.394438     9792.705 
  352000    1.7972072    14.809625    16.606832   -3.9799096    18.741651  0.047883269 -0.036198188    1.1982879    21.451392    9871.1198 
  353000    1.8020783    14.777693    16.579771   -4.0029475    18.734447  0.046193574     0.189753    1.2015357    21.381066    9774.3538 
  354000    1.7819114    14.766817    16.548729   -4.0015913    18.720048  0.048360715  -0.03268957    1.1880895     21.41792    9824.9842 
  355000    1.7718675    14.828301    16.600168   -3.9687552    18.748868  0.048188077  0.033724659    1.1813926    21.440109    9855.5522 
  356000    1.8088271    14.803802    16.612629   -3.9859254     18.73815  0.051577398  0.021066083    1.2060355    21.426762    9837.1581 
  357000    1.8038855    14.746358    16.550243   -4.0198409    18.719034  0.047164925   -0.1954925    1.2027406    21.405869    9808.4097 
  358000    1.8147537    14.761566    16.576319   -4.0129381    18.727422  0.047081744  -0.09546502     1.209987    21.395276    9793.8551 
  359000    1.8174621    14.789241    16.606703   -3.9896807    18.729967   0.04895421 -0.067005624    1.2117929    21.436271    9850.2612 
  360000     1.777091     14.76768    16.544771   -3.9963811    18.718824   0.04523699 -0.018475436    1.1848754    21.424615    9834.2004 
  361000    1.7941512    14.798444    16.592595   -3.9917635    18.738443  0.051765065   0.13548125    1.1962503    21.412993    9818.2062 
  362000     1.796052    14.785225    16.581277   -3.9972198    18.731955  0.050489161  -0.21781593    1.1975177    21.433989    9847.1151 
  363000    1.7819044    14.806231    16.588136   -3.9809297    18.737902  0.049259002  0.056388001    1.1880848    21.421186    9829.4801 
  364000    1.7854695    14.796068    16.581538   -3.9810399    18.727349  0.049759199  0.018856536    1.1904618    21.426386    9836.6394 
  365000    1.7823435    14.775586     16.55793   -3.9876403    18.711666  0.051560621  -0.12564629    1.1883775    21.434137    9847.3189 
  366000    1.8201591    14.783119    16.603278    -3.986961    18.728004  0.042076424  -0.19550059    1.2135911    21.442905    9859.4087 
  367000    1.8139899    14.798485    16.612475    -3.988927    18.742115   0.04529694  0.038309958    1.2094778    21.432054     9844.448 
  368000    1.7720626    14.790304    16.562367   -3.9912579    18.731433  0.050129156 -0.049955066    1.1815228    21.437701    9852.2318 
  369000    1.8441166     14.74746    16.591577   -4.0325758    18.730832  0.049204016 -0.094983491    1.2295647    21.363563    9750.3694 
  370000    1.7780593     14.76003     16.53809   -3.9887614     18.70545  0.043342044 -0.066782025     1.185521    21.429928    9841.5187 
  371000    1.8021733    14.788366    16.590539   -3.9962825    18.733435  0.051213621 -0.022142931    1.2015991    21.420046    9827.9111 
  372000    1.7896577    14.791853    16.581511   -3.9944841    18.737712   0.04862484 -0.034846753    1.1932543    21.426585    9836.9141 
  373000    1.7872675    14.748539    16.535806   -4.0170085    18.717472   0.04807596   0.17417342    1.1916606    21.370712    9760.1609 
  374000    1.8105897    14.791283    16.601873    -3.996277    18.738204  0.049356384 -0.074755815    1.2072107    21.423549    9832.7328 
  375000     1.819022    14.781361    16.600383   -4.0033695    18.739235  0.045496036  -0.10331743     1.212833    21.431562    9843.7704 
  376000    1.7672036    14.796131    16.563334   -4.0003114     18.74424    0.0522018   0.14760711     1.178283    21.400852    9801.5152 
  377000    1.8128295    14.778987    16.591816   -3.9994131    18.732908  0.045492504   0.11655808    1.2087041    21.414585    9820.3964 
  378000    1.8144148    14.783216    16.597631   -3.9948055    18.735312  0.042710142   0.15969955    1.2097611     21.42906    9840.3228 
  379000    1.7699873    14.776729    16.546716   -4.0070618    18.741995  0.041795652   0.11088507    1.1801391    21.384507    9779.0734 
  380000    1.8065207    14.777147    16.583668   -4.0001125    18.731165  0.046095099 0.0066697628    1.2044977    21.408064    9811.4271 
  381000    1.7925528    14.812867     16.60542   -3.9710228    18.737744  0.046145865 -0.092252066    1.1951846    21.453305    9873.7617 
  382000    1.8000314    14.792039    16.592071   -3.9825516    18.729248  0.045343189   -0.2139636     1.200171    21.442618    9859.0122 
  383000     1.786215    14.770775     16.55699   -4.0001937    18.723012  0.047956565  -0.12318405    1.1909589    21.409026    9812.7499 
  384000    1.8003929    14.744716    16.545109   -4.0294799     18.72769  0.046506537  0.073907982     1.200412    21.366954    9755.0129 
  385000    1.7794943     14.75575    16.535245   -4.0047342    18.717053  0.043431532  -0.11227332    1.1864779    21.431584    9843.8002 
  386000     1.817502    14.767206    16.584708   -4.0051466    18.725876  0.046476986 -0.037579618    1.2118195    21.406645     9809.476 
  387000    1.8080176    14.785092     16.59311   -3.9935603    18.727447  0.051205785 -0.0077557769    1.2054958    21.424897    9834.5894 
  388000    1.7928819    14.804539     16.59742   -3.9668258    18.723678  0.047686292  -0.13354723     1.195404    21.451705     9871.552 
  389000    1.7923548    14.770638    16.562993   -3.9994087    18.722075  0.047971429   0.25077124    1.1950526    21.398211     9797.886 
  390000    1.8250721    14.751056    16.576129   -4.0244159     18.72849  0.046981843 -0.0035635698    1.2168669    21.401366    9802.2215 
  391000    1.7855689    14.814398    16.599966   -3.9606263    18.730247  0.044777287 -0.039825259    1.1905281    21.463759    9888.2029 
  392000    1.8287611    14.809641    16.638402   -3.9628147    18.726696  0.045760456 -0.022755197    1.2193265    21.464021    9888.5651 
  393000    1.7829241    14.797448    16.580372   -3.9882316    18.737521  0.048159057   0.20660605    1.1887646    21.428497     9839.547 
  394000    1.8264654    14.758424    16.584889   -4.0105594    18.724773  0.044210081  0.080688886    1.2177958    21.402493    9803.7698 
  395000    1.7725829    14.776592    16.549175   -4.0033043    18.733087  0.046809869 -0.085435825    1.1818697    21.417197    9823.9892 
  396000    1.8103669    14.757477    16.567844   -4.0272531    18.736535  0.048194928   0.11610437    1.2070622    21.355214    9738.9428 
  397000    1.8103732    14.794957     16.60533   -3.9796181     18.72948  0.045095347  -0.13778346    1.2070663    21.472659    9900.5075 
  398000    1.8142285    14.835118    16.649347   -3.9549798    18.739197  0.050901254  0.057756954    1.2096369    21.452798    9873.0607 
  399000    1.8127715    14.780699    16.593471   -3.9814791    18.712964  0.049213886  -0.09763826    1.2086654    21.430363    9842.1179 
  400000    1.7853164    14.776435    16.561751   -3.9994247    18.724348  0.051511913  -0.06114136    1.1903598    21.421322    9829.6671 
  401000    1.8283766    14.783802    16.612178   -3.9919216    18.727766  0.047957673 -0.052411335    1.2190701     21.42436      9833.85 
  402000     1.775377    14.798175    16.573552   -3.9754919    18.726209   0.04745755 -0.089568552    1.1837326     21.45632    9877.9242 
  403000    1.8093617    14.747387    16.556748    -4.024222    18.724321  0.047287165   0.07292194    1.2063919    21.363423    9750.1778 
  404000    1.7859583    14.756561     16.54252   -4.0136688    18.724039  0.046191507  0.055792133    1.1907877    21.396672    9795.7727 
  405000    1.8087884    14.790472     16.59926   -3.9868585    18.731481  0.045849366 -0.093717037    1.2060097    21.427325    9837.9328 
  406000     1.762075    14.812471    16.574546   -3.9661763    18.730135  0.048512302 -0.0022196457    1.1748636    21.445466    9862.9414 
  407000    1.8213718    14.766742    16.588113     -3.99797    18.717627   0.04708423  -0.16011222    1.2143997    21.401898    9802.9514 
  408000    1.8021692    14.776616    16.578785   -3.9955196    18.723796  0.048339391 -0.016485785    1.2015963     21.44679    9864.7684 
  409000    1.8278835     14.77603    16.603914   -4.0118954    18.735029  0.052896768  -0.22908351    1.2187413    21.409186    9812.9704 
  410000     1.798213    14.793647     16.59186   -3.9835498    18.728035  0.049161703   0.12796399    1.1989586    21.440252    9855.7496 
  411000     1.806354    14.776097    16.582451   -3.9914693    18.723173  0.044393094  -0.11209971    1.2043866    21.411114    9815.6206 
  412000    1.7857212    14.770339     16.55606   -3.9888918    18.710427  0.048804473 -0.011524867    1.1906296    21.417472    9824.3685 
  413000    1.7958321     14.74431    16.540142   -4.0221458    18.717244  0.049211689 -0.031687133    1.1973711    21.383127    9777.1804 
  414000    1.8057154    14.768933    16.574649    -4.002947    18.720476  0.051403849  0.053441513    1.2039608    21.410135    9814.2747 
  415000    1.7853051    14.802346    16.587651   -3.9795801    18.730571    0.0513543  -0.11432516    1.1903522    21.426839    9837.2645 
  416000    1.8010758    14.801975    16.603051   -3.9753902    18.729524  0.047840752  -0.10580713    1.2008673    21.442792    9859.2531 
  417000    1.7706083    14.807445    16.578054   -3.9725752    18.731767  0.048253968  0.048211627    1.1805531     21.42453    9834.0834 
  418000    1.8000813    14.775687    16.575768   -4.0069779    18.734441  0.048224014  -0.17160194    1.2002042    21.411509    9816.1648 
  419000    1.8165299    14.782735    16.599264   -4.0113978     18.74352  0.050612106   -0.1611259    1.2111713    21.387678    9783.4249 
  420000    1.7815185    14.786909    16.568428   -3.9827283    18.720623  0.049014434   0.13069465    1.1878275    21.419685    9827.4142 
  421000    1.7976178     14.77374    16.571357   -4.0082421     18.73478   0.04720186 -0.049989437    1.1985617    21.398365    9798.0972 
  422000     1.802826    14.797803    16.600629   -3.9869248    18.736029  0.048698237  0.061905445    1.2020342    21.415138    9821.1568 
  423000    1.7839475    14.781869    16.565817   -3.9966113    18.730518   0.04796234 -0.057955344     1.189447    21.423149    9832.1823 
  424000    1.8254739    14.774578    16.600052   -4.0110182    18.733971  0.051625462  0.092663704    1.2171347    21.406548    9809.3429 
  425000    1.7863017    14.811248     16.59755    -3.976884    18.737988  0.050144755  0.097554506    1.1910167    21.451389    9871.1158 
  426000    1.8147416    14.793591    16.608332   -3.9776761    18.722695  0.048572153  0.024499682     1.209979    21.449515    9868.5287 
  427000    1.7801112    14.777265    16.557376   -3.9880113    18.719127  0.046149594  0.066242124    1.1868892    21.425717    9835.7179 
  428000    1.8146816    14.752872    16.567553   -4.0191296    18.720005  0.051996283  -0.10305232     1.209939    21.406027    9808.6272 
  429000    1.8282417    14.791853    16.620094   -3.9858202    18.730097  0.047575602    0.2077794    1.2189802    21.436591    9850.7017 
  430000    1.7842304    14.814984    16.599214    -3.968023    18.727506  0.055501008  0.052969692    1.1896356    21.446638    9864.5581 
  431000    1.7893985    14.775382    16.564781   -4.0133966    18.738578  0.050200757   0.11917103    1.1930815    21.411086    9815.5823 
  432000    1.8159898    14.743671     16.55966   -4.0268541    18.719211  0.051313775 -0.017805181    1.2108112    21.378072    9770.2482 
  433000    1.7882507    14.775891    16.564142   -3.9814362    18.714748  0.042578757 -0.027432873    1.1923162    21.434091    9847.2553 
  434000    1.8351791    14.777467    16.612646   -4.0084324    18.737114  0.048785493 -0.024894437    1.2236057    21.403602    9805.2934 
  435000    1.7916112    14.770241    16.561853   -4.0039574    18.726673  0.047525357  -0.11325384    1.1945568    21.406752    9809.6234 
  436000    1.8157053    14.768562    16.584268   -4.0153341    18.734825  0.049071832 -0.073136045    1.2106215    21.402204    9803.3729 
  437000    1.8117438    14.811489    16.623233   -3.9822426     18.74558   0.04815111 -0.032961643    1.2079802    21.436417    9850.4618 
  438000    1.7784059    14.794165    16.572571   -3.9733136    18.723314  0.044165107  0.054088826    1.1857521    21.444695    9861.8774 
  439000    1.8146256    14.774487    16.589112   -4.0040829    18.724428  0.054142099 -0.071005565    1.2099016    21.391203    9788.2625 
  440000    1.7808566    14.818048    16.598904   -3.9684084    18.734456  0.051999994  -0.22110627    1.1873861    21.458969    9881.5839 
  441000     1.816886    14.798113    16.614999   -3.9728346    18.720164  0.050784157 -0.027470637    1.2114088    21.450076    9869.3041 
  442000    1.7658121    14.798068     16.56388   -3.9894048    18.736477  0.050996022  0.070423523    1.1773552    21.423199    9832.2519 
  443000     1.806844    14.758846     16.56569   -4.0070853    18.713976  0.051955296 -0.047486505    1.2047133    21.399408    9799.5306 
  444000    1.7921246    14.802897    16.595021   -3.9846772    18.738395   0.04917881  -0.14860489    1.1948991    21.411747    9816.4912 
  445000    1.7876838    14.767496     16.55518    -4.002749    18.723758  0.046487368 -0.058358347    1.1919382    21.397037    9796.2737 
  446000    1.7948435    14.776219    16.571062   -4.0009559    18.726961  0.050213949 -0.080316058    1.1967119    21.423773    9833.0415 
  447000    1.8031729    14.769807     16.57298   -4.0085522    18.733717  0.044642747 -0.063032334    1.2022655    21.389575    9786.0288 
  448000    1.7980756    14.769332    16.567408   -3.9976661    18.716118  0.050880388   0.08147712    1.1988669    21.427333    9837.9447 
  449000    1.8048794    14.793727    16.598606   -3.9766513    18.720767  0.049611286  0.024363897    1.2034033    21.442965    9859.4918 
  450000      1.79418     14.80151     16.59569    -3.978688    18.730236  0.049962122  -0.13971227    1.1962695    21.455774    9877.1706 
  451000     1.787652    14.781499    16.569151   -4.0086962    18.739553  0.050641968    -0.111602     1.191917    21.428045    9838.9252 
  452000    1.8099305    14.800765    16.610696   -3.9816363    18.733487  0.048914373 -0.029858691    1.2067711    21.439851    9855.1964 
  453000    1.7688645    14.780776     16.54964   -3.9951486     18.72829  0.047634373 -0.010516692    1.1793904    21.414474    9820.2428 
  454000    1.7760267    14.730864    16.506891   -4.0468163    18.728488  0.049192666  0.090044572    1.1841658    21.348141    9729.2682 
  455000    1.7864907    14.766897    16.553388   -4.0199002    18.736118  0.050679835  0.040473314    1.1911427    21.400887    9801.5633 
  456000    1.8011094    14.780219    16.581328    -3.997678    18.726555  0.051342152  -0.10940264    1.2008897    21.411968    9816.7959 
  457000    1.7852304     14.78679     16.57202   -3.9960253    18.737991  0.044824665  -0.19887903    1.1903024    21.422184    9830.8533 
  458000     1.810871    14.746627    16.557498   -4.0325123    18.731273  0.047865831   0.19296931    1.2073983    21.379313    9771.9504 
  459000    1.7974723    14.789244    16.586716    -3.993378    18.733559  0.049062906   -0.2814478    1.1984647    21.439227    9854.3359 
  460000    1.8091069    14.796273     16.60538   -3.9991504     18.74188  0.053543059  -0.15621457     1.206222    21.422435     9831.199 
  461000    1.7984149     14.76393    16.562345   -4.0128585    18.726093  0.050695837 -0.018244734    1.1990931    21.407867    9811.1562 
  462000    1.7935098    14.793652    16.587162   -3.9808487    18.726718   0.04778271  0.032692365    1.1958227    21.425216    9835.0279 
  463000    1.8194444    14.793971    16.613415   -3.9890922    18.734664  0.048398397 -0.002865209    1.2131145    21.437598    9852.0903 
  464000    1.7761902    14.769184    16.545374   -4.0057259    18.728044  0.046865618  -0.20105676    1.1842749    21.408417    9811.9125 
  465000    1.7829322    14.766248    16.549181   -4.0202057     18.73434  0.052114425  0.082889983    1.1887701    21.369589    9758.6225 
  466000    1.8076943    14.774049    16.581743   -3.9858439    18.707492  0.052400163   0.15857319    1.2052802    21.412311    9817.2676 
  467000    1.7835947    14.806421    16.590016   -3.9778703    18.737608  0.046683416   -0.0924735    1.1892118    21.422103    9830.7424 
  468000    1.7753726    14.761305    16.536678   -4.0075227    18.720788  0.048039824  -0.16268564    1.1837297    21.425174    9834.9707 
  469000    1.7959739    14.755093    16.551067   -4.0275349    18.732168  0.050459392   0.37371822    1.1974656    21.356013    9740.0357 
  470000    1.7714402    14.805076    16.576516   -3.9613222    18.717025  0.049373019  -0.10126083    1.1811077    21.468034    9894.1126 
  471000    1.8483376    14.771896    16.620234   -3.9966865    18.722526  0.046056611   0.01860361    1.2323791    21.410234    9814.4116 
  472000     1.767411    14.805498    16.572909   -3.9799503    18.741773  0.043675297  -0.13756551    1.1784213    21.460445    9883.6226 
  473000    1.8215474    14.786842     16.60839    -3.993426    18.728695  0.051572858 -0.082779163    1.2145167    21.435551    9849.2684 
  474000    1.7933966    14.787748    16.581145   -3.9712807    18.713766  0.045262215   0.14173595    1.1957472    21.446235    9864.0022 
  475000    1.8401468    14.785423     16.62557   -3.9980267    18.736309  0.047140158 -0.058339884    1.2269179    21.410587    9814.8963 
  476000    1.7869782    14.791087    16.578066   -3.9969707    18.737705  0.050353221  0.051792852    1.1914677    21.435658    9849.4161 
  477000    1.7973842    14.762167    16.559552   -4.0039099    18.717688  0.048389731 -0.096267674     1.198406    21.407524    9810.6849 
  478000    1.8031122    14.760065    16.563177   -4.0151956     18.72732  0.047940013  0.063767523    1.2022251    21.394173    9792.3403 
  479000     1.806535    14.768777    16.575312   -3.9957235    18.717526  0.046974895 -0.077032927    1.2045072    21.427358     9837.978 
  480000    1.7983854     14.78841    16.586795   -3.9892457    18.726792  0.050863438  -0.13194498    1.1990735    21.423543    9832.7246 
  481000    1.8088908    14.810322    16.619213   -3.9588489    18.727226  0.041945002  0.054998115     1.206078    21.472121    9899.7635 
  482000    1.8190559    14.815047    16.634103   -3.9725242    18.740254  0.047317533  -0.11331201    1.2128555    21.447645    9865.9481 
  483000    1.7934674    14.769249    16.562716   -4.0160792    18.736794   0.04853388  0.091101647    1.1957944    21.402527    9803.8163 
  484000    1.8053691    14.759474    16.564843   -4.0233916      18.7335  0.049366151  -0.16195165    1.2037299    21.391241    9788.3152 
  485000    1.8119342    14.795739    16.607674   -3.9751238    18.720558  0.050305653  -0.19797817    1.2081071    21.449158     9868.037 
  486000    1.8352183    14.802307    16.637526   -3.9750169    18.720748   0.05657614  0.049001059    1.2236318    21.436138    9850.0776 
  487000    1.7719406    14.806927    16.578867   -3.9735506    18.731457  0.049020098   0.09016945    1.1814414      21.4394     9854.575 
  488000    1.8014708    14.800732    16.602202   -3.9745138     18.72418  0.051065598    0.0532813    1.2011307    21.428143    9839.0602 
  489000    1.7981108    14.824142    16.622253   -3.9467905    18.719557  0.051375115   0.13643542    1.1988904    21.476059    9905.2114 
  490000    1.8372359    14.793584     16.63082    -3.966377    18.710048  0.049913211 -0.026367499     1.224977    21.456028    9877.5212 
  491000    1.8024432    14.769054    16.571497   -4.0134075    18.737521  0.044940944  -0.12967515     1.201779    21.392338    9789.8214 
  492000    1.7789561    14.760342    16.539298   -4.0191542    18.730836  0.048659647  0.086105499     1.186119    21.393081    9790.8409 
  493000    1.8304017    14.769812    16.600214   -3.9988541     18.71637  0.052295671  0.086028384    1.2204203    21.422205    9830.8826 
  494000    1.7939925    14.819861    16.613853   -3.9595635    18.730054  0.049369864 -0.033644813    1.1961445    21.471251    9898.5605 
  495000    1.8112248    14.834638    16.645863   -3.9612201     18.74414  0.051717404   0.13754827    1.2076342    21.447771    9866.1222 
  496000    1.8095355    14.765022    16.574558   -3.9977243    18.718698  0.044048651   0.17904023    1.2065078    21.412136    9817.0266 
  497000    1.7800533    14.783462    16.563515   -4.0026412    18.736031  0.050072289    0.2238024    1.1868506     21.39367    9791.6504 
  498000    1.8033146    14.786856     16.59017    -4.002618    18.742341  0.047132916   0.15702035      1.20236    21.386696    9782.0774 
  499000    1.7732055     14.79126    16.564466   -3.9876865    18.730121  0.048825593  -0.15820302    1.1822848    21.438701     9853.611 
  500000    1.8035188    14.795061     16.59858   -3.9843959    18.726956  0.052501443 -0.0089245892    1.2024962    21.432222    9844.6793 
  501000    1.7917247    14.793253    16.584978    -3.968957    18.711131  0.051079398   0.29454972    1.1946324    21.432141    9844.5686 
  502000    1.7980823    14.784665    16.582747    -3.995976     18.73501  0.045630192   0.20333332    1.1988714    21.423331    9832.4332 
  503000    1.7988763    14.780103     16.57898   -4.0035589    18.736239  0.047423721  -0.23591358    1.1994008    21.426877    9837.3162 
  504000    1.8041135    14.759098    16.563212   -4.0186594    18.728929  0.048828148   -0.1304949    1.2028927    21.433564    9846.5297 
  505000    1.7954409    14.777919     16.57336   -4.0132561    18.741722  0.049453338  0.044884154    1.1971103    21.385473    9780.3988 
  506000    1.7792744    14.781372    16.560646   -3.9923374    18.724847  0.048862147  -0.28066875    1.1863312    21.448732    9867.4487 
  507000    1.8244471    14.786206    16.610653   -3.9996487     18.73844  0.047414581   0.20515939    1.2164501    21.394986    9793.4568 
  508000    1.7804494     14.79824     16.57869   -3.9767898    18.723143   0.05188684 -0.046300071    1.1871147      21.4458    9863.4029 
  509000    1.8139256    14.798775      16.6127   -3.9852741    18.732944  0.051104624  0.069306131    1.2094349    21.411875    9816.6676 
  510000    1.8306535    14.774664    16.605318   -3.9861293    18.712572  0.048221791  -0.21406221    1.2205883    21.466622    9892.1594 
  511000    1.8079605    14.768771    16.576731   -3.9944478    18.713913  0.049305271   0.13662809    1.2054577    21.419419    9827.0481 
  512000    1.7908311    14.769463    16.560294   -4.0179699    18.739318  0.048114654 -0.049291232    1.1940367    21.397473    9796.8726 
  513000    1.7925782    14.739653    16.532231   -4.0404623    18.732236  0.047879096 0.0069093144    1.1952015     21.36038    9746.0115 
  514000    1.7583641    14.801913    16.560277   -3.9839707    18.737584  0.048299973  0.029324884    1.1723893     21.42566    9835.6401 
  515000    1.8151395    14.774131    16.589271   -3.9795128    18.706098  0.047545933  0.035344211    1.2102443    21.433668     9846.672 
  516000    1.8109022    14.792104    16.603006   -3.9839595    18.724847  0.051215836  -0.17310028    1.2074191    21.441751    9857.8165 
  517000    1.8240867     14.79367    16.617757   -3.9854284    18.728754  0.050344183  -0.18298943    1.2162098     21.44505    9862.3681 
  518000    1.8070829     14.75446    16.561543   -4.0132241      18.7219  0.045784396 -0.042073151    1.2048726    21.388598    9784.6879 
  519000    1.7652164    14.774289    16.539506   -4.0127754    18.741322  0.045742227   0.14781208    1.1769581    21.378098    9770.2838 
  520000    1.7934243     14.80021    16.593634   -3.9798799    18.729734  0.050355415  0.071795602    1.1957656    21.422403    9831.1557 
  521000    1.8116935    14.811718    16.623411    -3.963655    18.728504  0.046868756  0.066757139    1.2079467    21.455052     9876.174 
  522000    1.8154795    14.806314    16.621793   -3.9764561    18.737879  0.044890941 -0.040203348     1.210471    21.441114     9856.938 
  523000    1.8029471    14.758268    16.561216   -4.0186898    18.731672   0.04528595  0.055385082     1.202115    21.381037    9774.3146 
  524000    1.7832972    14.745431    16.528728   -4.0259533    18.725861  0.045523042  -0.16010453    1.1890134    21.383615    9777.8501 
  525000    1.8170203    14.765447    16.582467   -4.0151457    18.734629  0.045963562  -0.12546264    1.2114983    21.389612    9786.0788 
  526000    1.8179353    14.806008    16.623943   -3.9785019    18.736927  0.047582989 -0.061878092    1.2121084    21.441335    9857.2427 
  527000    1.7897925    14.807999    16.597791   -3.9706186    18.731384  0.047233006 -0.071434263    1.1933442    21.463067    9887.2456 
  528000    1.8069193    14.789201     16.59612   -3.9791684    18.716943  0.051426046 -0.058423646    1.2047635    21.434231    9847.4488 
  529000    1.8038727    14.772942    16.576814   -4.0059423    18.735108  0.043776029  0.029155646    1.2027322    21.427559    9838.2551 
  530000    1.8010884    14.758383    16.559472   -4.0135447    18.725442  0.046485563   0.07402195    1.2008757     21.39239    9789.8921 
  531000    1.7998779     14.78837    16.588248   -3.9802907    18.721032  0.047628786 -0.0064013615    1.2000686    21.465276    9890.2989 
  532000    1.8003892    14.803166    16.603555   -3.9971991    18.752261  0.048103635 -0.0086017309    1.2004095    21.431013    9843.0134 
  533000     1.803447    14.751232    16.554679   -4.0140793    18.718025  0.047286725   -0.0818998    1.2024483    21.390119    9786.7745 
  534000    1.7702878     14.75279    16.523078   -4.0179888     18.72751  0.043268841    0.1310111    1.1803394     21.38591    9780.9982 
  535000     1.785176    14.777263    16.562439    -4.009022    18.740989  0.045295653  -0.10146562    1.1902661    21.396998    9796.2196 
  536000    1.7838612    14.783388     16.56725    -4.000822    18.737683  0.046527771   0.10654467    1.1893895    21.419178    9826.7153 
  537000    1.8200699    14.791614    16.611684   -3.9924172    18.738761  0.045270843  0.028331595    1.2135316    21.431591    9843.8103 
  538000    1.8055168    14.788958    16.594474    -3.993772    18.731453  0.051276289 -0.094758743    1.2038283    21.439479    9854.6831 
  539000    1.7951872    14.758342    16.553529   -4.0163056    18.729778  0.044869106 -0.0061499157    1.1969411    21.394754    9793.1383 
  540000    1.7758098    14.776445    16.552254   -4.0026405    18.732822  0.046263445  0.088549733    1.1840212    21.402485    9803.7591 
  541000    1.8112039    14.780894    16.592098   -3.9929045    18.724342  0.049456903    0.0420114    1.2076202    21.419808    9827.5826 
  542000    1.7902728    14.768311    16.558584   -3.9971572    18.720203  0.045264688 -0.075186617    1.1936644     21.42505    9834.7996 
  543000    1.7768632    14.756946    16.533809   -4.0253858    18.735494  0.046837513  -0.14192159    1.1847236    21.392169    9789.5889 
  544000    1.8254658    14.753563    16.579029   -4.0256076    18.733145  0.046025396   0.13960536    1.2171294    21.375116     9766.196 
  545000     1.785835    14.773702    16.559537    -3.990136    18.717284  0.046554246  -0.11728202    1.1907055      21.4396    9854.8505 
  546000     1.812025     14.79856    16.610585   -4.0106481    18.760296  0.048912945   0.21105625    1.2081677    21.373923    9764.5609 
  547000    1.7861916    14.767145    16.553336   -4.0012918    18.728052  0.040384523 -0.013043177    1.1909433    21.419279    9826.8544 
  548000    1.7917351    14.784934    16.576669    -3.999989     18.73543  0.049493552   0.14316321    1.1946394    21.410073    9814.1894 
  549000     1.797643    14.787769    16.585412   -3.9917302    18.735779  0.043720548  -0.19265631    1.1985785    21.435906    9849.7579 
  550000    1.8200549    14.761328    16.581383   -4.0170671    18.728309  0.050086154 -0.020544391    1.2135217    21.398591    9798.4077 
  551000    1.8036925    14.732617    16.536309   -4.0247101    18.705163  0.052163228  0.039671645     1.202612    21.376605    9768.2372 
  552000     1.794608    14.795502     16.59011   -3.9948852    18.744111  0.046276091  0.026137806    1.1965549    21.417325    9824.1658 
  553000    1.8216612    14.795473    16.617135     -3.97776    18.727663  0.045570518  -0.19335792    1.2145926    21.444926    9862.1968 
  554000    1.7835143    14.778563    16.562077   -4.0048873    18.736433  0.047017469  0.037755702    1.1891582    21.396875    9796.0515 
  555000    1.8080173     14.75804    16.566058   -4.0042058    18.717266  0.044980451  0.026136658    1.2054956    21.422884    9831.8177 
[...]
 9867000     1.785157    14.783838    16.568995   -3.9873546    18.726253  0.044939477  0.048258579    1.1902535    21.414206    9819.8738 
 9868000    1.8090882    14.791429    16.600517     -3.98705    18.726389  0.052089716 -0.047000216    1.2062096    21.434619    9847.9827 
 9869000    1.8099997    14.796588    16.606588   -3.9729196     18.72013  0.049377444   0.16881766    1.2068173    21.452728    9872.9639 
 9870000    1.8121266    14.748217    16.560343   -4.0227306    18.719366  0.051581503  0.011799234    1.2082354    21.389251    9785.5832 
 9871000    1.7881681    14.717357    16.505525   -4.0429751     18.71255   0.04778249   -0.1026714    1.1922611     21.37792    9770.0407 
 9872000    1.8041812    14.739538     16.54372    -4.052282     18.74572  0.046100309  0.078268085    1.2029378    21.355174     9738.888 
 9873000    1.7905223     14.77087    16.561392   -3.9851561    18.712241  0.043784628  0.037167587    1.1938308    21.430228    9841.9326 
 9874000    1.7928464    14.800392    16.593238   -3.9719493    18.719587  0.052754195  0.044110638    1.1953803    21.416338    9822.8071 
 9875000    1.7927886    14.785475    16.578263   -4.0017046    18.736483   0.05069641 -0.038799606    1.1953418      21.4376    9852.0923 
 9876000    1.8064561    14.754457    16.560913   -4.0156898    18.724668    0.0454782    0.1672034    1.2044546    21.382089    9775.7576 
 9877000    1.7883798    14.759873    16.548253   -4.0070081    18.722243  0.044638381  -0.19071199    1.1924022    21.401048    9801.7838 
 9878000    1.8164137    14.779657     16.59607   -4.0027405    18.728373  0.054024285 -0.040938926    1.2110938    21.418397    9825.6415 
 9879000    1.8128599    14.772261    16.585121   -4.0050787     18.72946  0.047879818   0.22432231    1.2087244     21.39899    9798.9564 
 9880000    1.7902764    14.756582    16.546859   -4.0090659    18.721651  0.043997158  -0.15600547    1.1936668     21.39894    9798.8874 
 9881000    1.7916289    14.817667    16.609296   -3.9914592    18.755059  0.054067137  -0.12483161    1.1945686    21.419139    9826.6627 
 9882000     1.794016    14.802327    16.596343   -3.9844914    18.741216  0.045601831 -0.036947058    1.1961602    21.439371    9854.5348 
 9883000    1.7851671    14.761774    16.546941   -4.0048212    18.719235  0.047360708   0.12643254    1.1902602    21.416814    9823.4619 
 9884000    1.7869522    14.779394    16.566346   -3.9978509    18.727006  0.050238422 -0.064555961    1.1914504    21.396842    9796.0056 
 9885000     1.797633    14.797079    16.594712   -3.9792836    18.724828  0.051534265  0.051832621    1.1985719    21.434977    9848.4771 
 9886000    1.8205619    14.828864    16.649426   -3.9644235    18.741287  0.052000524 -0.020860479    1.2138597    21.466076    9891.4057 
 9887000    1.7997106    14.806023    16.605734   -3.9794992    18.735697  0.049825941  -0.12161588    1.1999571     21.42785     9838.657 
 9888000    1.7964843    14.777805    16.574289   -4.0076228    18.735941  0.049486782 -0.029744599    1.1978059    21.440347    9855.8806 
 9889000    1.8056367    14.808896    16.614533   -4.0147139    18.772969   0.05064124  0.014856856    1.2039083    21.402159    9803.3107 
 9890000    1.7769351    14.812485     16.58942   -3.9537618     18.71328  0.052967591  -0.16401179    1.1847715    21.475918    9905.0163 
 9891000    1.8151068    14.757228    16.572335    -4.003001    18.712969  0.047260134  -0.11882053    1.2102225    21.421685    9830.1667 
 9892000     1.775543    14.765137     16.54068    -3.999345    18.714781  0.049700121   0.12410873    1.1838433    21.398981    9798.9441 
 9893000    1.8274235    14.760427     16.58785   -4.0171724    18.727167  0.050432049  0.090417724    1.2184346    21.378503    9770.8393 
 9894000    1.8007703    14.769637    16.570407   -3.9991923    18.725256   0.04357322  -0.18711095    1.2006636    21.421466    9829.8648 
 9895000    1.7750284    14.753291    16.528319   -4.0212562    18.727383  0.047164119 -0.016771883    1.1835002    21.387801     9783.593 
 9896000      1.79445    14.787916    16.582366   -3.9957474    18.732755  0.050908474  -0.01460292    1.1964496     21.39724    9796.5531 
 9897000    1.8008204     14.77731     16.57813   -3.9852265    18.713758  0.048778732 -0.043441137     1.200697    21.435341     9848.978 
 9898000    1.7958731     14.79312    16.588993   -3.9841156    18.724616  0.052619459   0.11066893    1.1973984    21.420889    9829.0713 
 9899000    1.7963295    14.810706    16.607036   -3.9800831    18.739395  0.051394026  -0.22132899    1.1977027    21.448275    9866.8174 
 9900000    1.7742327    14.781312    16.555544    -4.004772    18.737071  0.049012849  -0.13729929    1.1829697    21.397071    9796.3206 
 9901000    1.7662802    14.768284    16.534564   -4.0056573     18.72685  0.047091048  0.053922905    1.1776673    21.390069    9786.7059 
 9902000    1.8164249    14.790472    16.606897   -3.9781955    18.716586  0.052080982  -0.10286363    1.2111013    21.461181    9884.6395 
 9903000    1.8065987    14.810831    16.617429   -3.9741714    18.735674  0.049328319  0.011392565    1.2045497    21.424788    9834.4392 
 9904000    1.7944807     14.77063    16.565111   -3.9920649    18.717251  0.045444516   0.13483604      1.19647    21.417417     9824.292 
 9905000    1.8075691    14.764488    16.572057   -4.0124501    18.731225  0.045712494 -0.067781034    1.2051967    21.396839    9796.0014 
 9906000    1.7754551    14.770015     16.54547   -4.0020086    18.723491  0.048532634  0.029671898    1.1837847    21.405622    9808.0701 
 9907000    1.8058472    14.787007    16.592854   -3.9948993     18.73383  0.048076428  -0.12317254    1.2040486    21.419907    9827.7194 
 9908000    1.8063249    14.800731    16.607056   -3.9712886    18.727385  0.044634023 -0.065954647    1.2043672    21.466407    9891.8626 
 9909000    1.7971192    14.766638    16.563757   -4.0130508    18.728938  0.050751198   0.11056921    1.1982292    21.395104    9793.6195 
 9910000    1.7869383    14.755667    16.542605   -4.0114769    18.718059  0.049084411  0.035828661    1.1914412    21.401112    9801.8716 
 9911000    1.7787458    14.816776    16.595522   -3.9733926    18.741019  0.049149857 -0.079298414    1.1859788    21.456224    9877.7928 
 9912000    1.8326688    14.783406    16.616075   -3.9856952    18.721137  0.047964422    0.1037543    1.2219319    21.417017    9823.7416 
 9913000    1.7865892    14.772646    16.559235   -4.0056434    18.727441   0.05084865 -0.055490234    1.1912084    21.414744    9820.6144 
 9914000    1.8139004    14.789813    16.603714   -3.9769227    18.718523  0.048213001  -0.13034729    1.2094181    21.441539    9857.5243 
 9915000    1.7893612     14.80237    16.591731    -3.984444    18.739102  0.047711634   0.13642377    1.1930566    21.424604    9834.1855 
 9916000    1.7790069    14.782041    16.561048   -3.9902345    18.723019  0.049256819   0.15578424    1.1861529    21.399046    9799.0335 
 9917000    1.8258661     14.78375    16.609616   -3.9819743    18.716278  0.049446313  -0.13623597    1.2173962    21.447082    9865.1714 
 9918000    1.8073175    14.825011    16.632329   -3.9557746    18.733247  0.047538806 -0.089364437    1.2050289    21.464341    9889.0064 
 9919000     1.807382    14.780199    16.587581   -3.9904512    18.723963  0.046687669 -0.087965888    1.2050719    21.452899    9873.2009 
 9920000    1.8119573    14.739521    16.551478   -4.0308373    18.723771  0.046586909  -0.17436262    1.2081225    21.374695     9765.619 
 9921000    1.7851111    14.725468    16.510579   -4.0314462    18.711862  0.045052157   0.22858674    1.1902228    21.351898    9734.4062 
 9922000    1.8117114    14.771342    16.583053   -4.0075101    18.730522  0.048329976 -0.031626049    1.2079586    21.424664    9834.2691 
 9923000     1.819538    14.797183    16.616721   -3.9735951    18.726723  0.044054884   0.17874145     1.213177    21.430745    9842.6449 
 9924000    1.7800665    14.791326    16.571393   -3.9705982    18.714433  0.047491662 -0.096455966    1.1868594    21.463448     9887.773 
 9925000     1.827142    14.768954    16.596096   -4.0138635    18.733712  0.049105663 0.0081181209    1.2182469    21.408946    9812.6405 
 9926000    1.8039984    14.759332     16.56333   -4.0037616    18.718616  0.044476778 -0.0059969568    1.2028159    21.407577    9810.7573 
 9927000    1.7875319     14.79477    16.582302   -3.9781265    18.727167  0.045729636  0.068093726    1.1918369      21.4534    9873.8927 
 9928000    1.8046125    14.788756    16.593368   -3.9901056     18.72832   0.05054136  0.057322572    1.2032254     21.41579    9822.0533 
 9929000    1.7818761    14.762959    16.544835   -4.0013927    18.718227  0.046124653  -0.14849503    1.1880659     21.42995    9841.5495 
 9930000    1.8432889    14.754703    16.597992   -4.0309857    18.734165  0.051523659   0.11766512    1.2290129     21.35274    9735.5578 
 9931000    1.7827676    14.793651    16.576418   -3.9880871    18.731539  0.050198992 -0.006618298    1.1886603    21.434687     9848.077 
 9932000    1.7903098    14.801668    16.591978   -3.9930012    18.748818  0.045850942  0.093039868    1.1936891    21.410815      9815.21 
 9933000    1.7929112    14.769892    16.562803   -4.0117008    18.737502  0.044090442  0.073414219    1.1954236    21.400368    9800.8489 
 9934000    1.7986085    14.768155    16.566764   -3.9915164    18.709061  0.050610447  0.074600163    1.1992223    21.417262    9824.0788 
 9935000    1.8079709    14.807272    16.615243   -3.9633114    18.721217    0.0493663  -0.18072871    1.2054646    21.453917    9874.6063 
 9936000    1.7894053    14.783687    16.573092   -4.0105639    18.742441  0.051809183   0.12737638     1.193086    21.412217    9817.1383 
 9937000    1.8072397    14.761216    16.568455   -4.0117841    18.727798  0.045201408  0.014318615    1.2049771    21.392782    9790.4313 
 9938000    1.8138967    14.782594     16.59649   -3.9890315    18.727634  0.043990951  0.031934441    1.2094157    21.433754    9846.7905 
 9939000    1.8135543    14.827042    16.640596   -3.9605119    18.738663  0.048891063  -0.41107521    1.2091874    21.477801    9907.6217 
 9940000    1.8125989    14.773729    16.586328   -3.9900906    18.713871  0.049948999 -0.074681818    1.2085504    21.434825    9848.2679 
 9941000    1.7873817    14.755224    16.542606   -4.0288462    18.735111  0.048959613   0.12830357    1.1917368    21.354592    9738.0917 
 9942000     1.788947    14.762824    16.551771   -4.0106713    18.725391  0.048104732  0.070778401    1.1927804    21.407319    9810.4028 
 9943000    1.7880409    14.799121    16.587162   -3.9845481    18.735903  0.047766314  0.091477999    1.1921763    21.447864    9866.2511 
 9944000    1.7998987     14.78865    16.588549    -3.996729    18.734996  0.050383436 0.0069845884    1.2000825    21.407269    9810.3344 
 9945000    1.7850963    14.759732    16.544829   -4.0161143     18.72519  0.050656496   0.12767326     1.190213    21.396958    9796.1649 
 9946000    1.7919642     14.81494    16.606904    -3.974268    18.738951  0.050257306   0.01403615    1.1947922    21.436633    9850.7595 
 9947000    1.8172748    14.797325      16.6146    -3.991344    18.739104   0.04956444 -0.041172495     1.211668    21.452205    9872.2429 
 9948000    1.7906995    14.777253    16.567952   -3.9946879    18.719978  0.051962956 -0.062303354    1.1939489    21.429249    9840.5834 
 9949000    1.7950137    14.732418    16.527432   -4.0546966     18.73965  0.047464915  0.014620597    1.1968254    21.358538    9743.4909 
 9950000    1.7812849    14.756481    16.537766   -4.0216654    18.726772  0.051374263  0.092020715    1.1876717     21.38471     9779.352 
 9951000    1.8062447    14.764284    16.570529   -4.0059552    18.722848  0.047391055  -0.10078611    1.2043137    21.422827    9831.7388 
 9952000    1.8125498    14.814116    16.626666   -3.9625421    18.727138  0.049520923 0.0044398402    1.2085176    21.465362    9890.4182 
 9953000    1.8011457    14.822111    16.623257   -3.9638411     18.73534  0.050612691   0.07195907    1.2009139    21.483284    9915.2126 
 9954000    1.8065993    14.773371     16.57997   -3.9942899    18.720807   0.04685345   0.03036823    1.2045501    21.418316    9825.5295 
 9955000     1.783799    14.778835    16.562634   -4.0029633    18.729593  0.052205492 -0.058229951     1.189348    21.405808    9808.3256 
 9956000    1.8136457    14.759125    16.572771    -4.008482    18.725215  0.042391625   0.13514262    1.2092483    21.402828    9804.2302 
 9957000    1.7941643    14.827591    16.621755   -3.9467372    18.728284  0.046043657   0.21585259    1.1962591    21.446952    9864.9926 
 9958000     1.778244    14.814212    16.592456   -3.9647186    18.733279  0.045651063  0.050236569    1.1856442    21.461356    9884.8813 
 9959000    1.8009071    14.778232    16.579139   -3.9930819    18.720513  0.050800884  0.023500939    1.2007548    21.420261    9828.2071 
 9960000    1.8108584    14.761781    16.572639   -4.0033477    18.717478   0.04765073   0.04716281    1.2073898    21.402187    9803.3496 
 9961000    1.7939341    14.728956     16.52289   -4.0268427    18.712912  0.042885972 -0.0032021562    1.1961056     21.39287    9790.5512 
 9962000    1.7914978    14.776794    16.568291   -3.9999499    18.725785  0.050958533   0.11324294    1.1944812    21.406702    9809.5544 
 9963000    1.7990089    14.802323    16.601332   -3.9815568    18.731946  0.051933222  -0.13325178    1.1994892    21.425421    9835.3106 
 9964000    1.7941038    14.765994    16.560098   -4.0036362    18.721583    0.0480476 -0.064633621    1.1962187    21.407661    9810.8726 
 9965000    1.8074882    14.756777    16.564265   -4.0296888    18.743034  0.043431833 0.0090547681    1.2051428    21.367308    9755.4974 
 9966000    1.7959194    14.757688    16.553607   -4.0121639    18.727504  0.042347585 -0.042217878    1.1974293    21.407437    9810.5649 
 9967000    1.8246934    14.744917     16.56961   -4.0250031    18.723112  0.046807894  0.025698534    1.2166144    21.378829    9771.2858 
 9968000    1.7762226    14.802759    16.578982    -3.984458    18.737156  0.050061373    -0.181546    1.1842965    21.441767    9857.8393 
 9969000    1.8502058     14.78781    16.638016   -3.9925256    18.733158  0.047177864   0.18503693    1.2336247    21.410808       9815.2 
 9970000    1.7995064    14.800565    16.600071   -3.9610635    18.717906  0.043721928 -0.018680911    1.1998209    21.467181    9892.9333 
 9971000    1.7893496    14.792482    16.581831   -3.9936088     18.73631  0.049780289 0.0082774073    1.1930489    21.414132    9819.7726 
 9972000    1.7867785    14.733265    16.520044   -4.0374032    18.718497  0.052171593  -0.11201602    1.1913346    21.395839    9794.6287 
 9973000    1.7920763     14.76141    16.553486   -4.0157171     18.72945  0.047677175 -0.075773405    1.1948669    21.399761    9800.0151 
 9974000    1.8128883    14.775139    16.588028     -4.01249    18.740408  0.047221265 0.0044061773    1.2087433    21.392298    9789.7655 
 9975000    1.7780885     14.76497    16.543059    -4.001939    18.720301  0.046607922 -0.039649348    1.1855405    21.418397    9825.6404 
 9976000    1.8078739     14.75257    16.560444   -4.0172483    18.723894   0.04592509 -0.0078119668       1.2054    21.366777    9754.7699 
 9977000    1.8123908    14.822024    16.634415   -3.9712811    18.743419  0.049886081  0.018309358    1.2084116    21.460083    9883.1225 
 9978000    1.7914932    14.808013    16.599506   -3.9711109    18.734855  0.044268895  -0.13381126    1.1944781    21.451855      9871.76 
 9979000    1.8030245    14.773463    16.576488    -3.998618    18.727656   0.04442472  0.041378539    1.2021666    21.402408    9803.6532 
 9980000    1.7944958    14.773527    16.568023   -3.9970183    18.723459  0.047086655 -0.088654844    1.1964801    21.399521    9799.6857 
 9981000    1.8059867    14.762303     16.56829   -4.0172896     18.72864   0.05095256  -0.15334102    1.2041417    21.405379    9807.7358 
 9982000    1.8373164    14.777987    16.615303   -3.9933427    18.721723  0.049606217   0.10947696    1.2250307    21.436975    9851.2306 
 9983000    1.7974735    14.795075    16.592548   -3.9868764    18.737701  0.044250157 -0.026554754    1.1984655     21.43395     9847.061 
 9984000     1.795247    14.767064    16.562311   -4.0130166    18.735173  0.044906895 -0.011087509     1.196981    21.404875    9807.0432 
 9985000    1.8062368    14.769791    16.576028   -4.0216951    18.742411   0.04907577  0.027807062    1.2043084    21.395807    9794.5839 
 9986000     1.785453    14.777102    16.562555   -3.9882724     18.71829  0.047084119 -0.055734034    1.1904508     21.41041     9814.653 
 9987000    1.7884626    14.737364    16.525826    -4.022086    18.711851  0.047598875  0.077062715    1.1924575    21.383647    9777.8943 
 9988000    1.7853235    14.794038    16.579361   -4.0006728    18.745571  0.049139607  -0.18141204    1.1903645    21.420215     9828.143 
 9989000    1.8017957    14.784954     16.58675     -3.98473    18.726868    0.0428164  -0.15834826    1.2013473    21.443945    9860.8434 
 9990000    1.8200879     14.78758    16.607667    -4.008636    18.749289    0.0469263  0.021644859    1.2135436    21.389791    9786.3252 
 9991000    1.7752452    14.771824    16.547069   -3.9964528    18.721822  0.046454059  -0.22401704    1.1836447    21.427479    9838.1452 
 9992000    1.8075798       14.784     16.59158   -3.9774081    18.717559  0.043849311 -0.040112455    1.2052039    21.430043    9841.6778 
 9993000    1.8028405    14.784675    16.587516   -3.9810838    18.719513  0.046245686   0.13906891    1.2020439    21.430901    9842.8594 
 9994000    1.8081462    14.721519    16.529666   -4.0377139    18.712554  0.046678812  0.087680931    1.2055815     21.35808     9742.863 
 9995000    1.7831021    14.761273    16.544375   -4.0195861    18.735096  0.045762598  0.064200054    1.1888833    21.386709    9782.0957 
 9996000    1.8009347    14.798871    16.599805   -3.9777006     18.73237  0.044201348  0.031419112    1.2007732    21.468239    9894.3949 
 9997000    1.8248844    14.802247    16.627132   -3.9735836    18.729882  0.045948817  0.061552693    1.2167417    21.431485    9843.6639 
 9998000    1.7551492    14.815198    16.570347   -3.9673057    18.734385  0.048118218   0.20865729    1.1702458    21.432283    9844.7641 
 9999000    1.8049193    14.799022    16.603941   -3.9838131    18.737194  0.045640907   0.04413088    1.2034299    21.445317    9862.7356 
10000000    1.8180809    14.821912    16.639993   -3.9697174    18.741928  0.049701423  -0.15958287    1.2122055    21.451676    9871.5128 
Loop time of 16040.1 on 8 procs for 10000000 steps with 8000 atoms

Performance: 107730.037 tau/day, 623.438 timesteps/s
99.6% CPU use with 8 MPI tasks x no OpenMP threads

MPI task timing breakdown:
Section |  min time  |  avg time  |  max time  |%varavg| %total
---------------------------------------------------------------
Pair    | 10853      | 10954      | 11047      |  60.5 | 68.29
Bond    | 622.96     | 629.04     | 637.7      |  19.0 |  3.92
Neigh   | 1839.7     | 1840.3     | 1841       |   0.9 | 11.47
Comm    | 1355.4     | 1444.9     | 1540.5     | 172.6 |  9.01
Output  | 162.77     | 162.78     | 162.86     |   0.2 |  1.01
Modify  | 901.64     | 911.79     | 923.75     |  27.3 |  5.68
Other   |            | 97.03      |            |       |  0.60

Nlocal:    1000 ave 1009 max 972 min
Histogram: 1 0 0 0 0 0 1 0 3 3
Nghost:    2530.62 ave 2545 max 2514 min
Histogram: 3 0 0 0 0 0 1 0 3 1
Neighs:    35749 ave 36771 max 33813 min
Histogram: 1 0 0 1 0 1 0 1 3 1

Total # of neighbors = 285992
Ave neighs/atom = 35.749
Ave special neighs/atom = 1.8
Neighbor list builds = 648276
Dangerous builds = 2
Total wall time: 4:27:20
