LAMMPS (19 Mar 2020)
# LAMMPS input file

variable k equal kkk

log t0.5p0.0n8000npt.log
