8000
Atoms. Timestep: 10000000
1 -7.58367 -4.40864 -6.42437
1 -8.37455 -3.95399 -6.15402
1 -8.4683 -3.98302 -5.16121
1 -8.54838 -3.04654 -5.18094
1 -8.17485 -2.14585 -5.03447
1 -7.65481 -1.37876 -5.29553
1 -6.78083 -1.15842 -5.47721
1 -6.55839 -0.19634 -5.6868
1 -7.44481 -0.298732 -6.09583
1 -7.31382 -0.107658 -7.04248
1 -7.25821 5.16981 -7.02443
1 -6.65538 5.87968 -6.89685
1 -5.82416 5.54645 -6.70893
1 -6.20515 4.77834 -6.98558
1 -6.69469 4.19157 -7.56694
1 -6.76748 3.46536 -8.21502
1 -5.96907 3.08313 -7.85258
1 -5.69273 3.83201 -8.3604
1 -5.9363 3.05419 -8.94254
1 -6.39734 2.20314 -9.11481
1 -1.50195 8.29489 7.73166
1 -1.84691 8.87984 7.09564
1 -1.81261 8.77507 6.16245
1 -2.23159 8.14759 5.56285
1 -2.41386 7.85431 4.68743
1 -3.30977 7.64456 4.61939
1 -3.92515 7.08482 5.0877
1 -4.24147 6.91082 5.95895
1 -4.29349 5.99032 5.91402
1 -5.05379 6.15578 5.39412
1 -0.311522 -1.93339 -4.81076
1 -0.442096 -2.86944 -4.47265
1 -1.25555 -3.31404 -4.31067
1 -1.13144 -3.46519 -5.25911
1 -0.669175 -3.31974 -6.10556
1 -1.07264 -2.40038 -6.32563
1 -1.04499 -2.38066 -5.40201
1 -0.963282 -1.45294 -5.56906
1 -0.140552 -1.09042 -5.92485
1 0.760075 -1.54974 -6.25208
1 -9.43201 1.11265 -0.132211
1 -10.0387 1.36282 0.599438
1 -9.76573 2.27104 0.186798
1 -10.357 2.96608 0.451104
1 10.1875 2.37877 0.265586
1 9.92216 2.19592 1.20104
1 9.41649 1.68919 0.520114
1 10.0871 1.28812 -0.022967
1 9.61345 0.422074 0.0631972
1 9.01048 -0.271771 0.133095
1 -5.04604 9.03218 9.62436
1 -4.88036 8.52624 8.79321
1 -4.78074 7.70347 8.3872
1 -4.26657 7.23444 8.94885
1 -3.81812 7.98919 8.48121
1 -3.31529 7.23679 8.06265
1 -4.10778 7.4017 7.61701
1 -3.4905 8.10385 7.44578
1 -4.27992 8.4035 7.0346
1 -4.90764 7.94072 6.58543
1 -10.2774 2.85325 6.94028
1 -10.3581 3.53685 7.67407
1 10.1439 3.10476 7.38843
1 9.95891 3.97728 7.73519
1 9.28823 3.53874 8.26806
1 8.74995 3.19205 7.5816
1 8.53433 2.45236 6.98981
1 8.65536 2.61333 6.06557
1 9.39752 3.05949 6.58195
1 10.2452 3.04463 6.09755
1 -1.32847 -2.85398 5.82477
1 -1.2055 -3.73574 5.37413
1 -1.488 -4.3359 6.03364
1 -1.84182 -4.49017 5.14135
1 -1.16729 -4.28971 4.49888
1 -2.02522 -3.85706 4.32797
1 -1.70606 -2.93873 4.21158
1 -2.14076 -2.11652 4.41668
1 -2.12871 -1.40323 3.67655
1 -2.66016 -1.43536 2.85761
1 -1.45005 -6.68645 -1.64322
1 -0.910082 -5.95233 -1.40452
1 -0.807789 -6.42416 -0.544208
1 -0.670112 -7.16396 -0.0239263
1 -0.823303 -7.28922 -0.967683
1 0.113025 -7.49225 -0.804656
1 0.527431 -6.79258 -0.359518
1 1.01038 -6.28415 0.245894
1 0.618067 -5.59555 0.944249
1 0.290786 -5.17684 1.73
1 0.644297 10.6254 -10.1959
1 1.37244 10.5889 10.4773
1 0.884976 9.80679 10.3353
1 1.65528 9.30273 -10.5439
1 1.20772 9.78783 -9.7871
1 0.623587 9.04702 -10.1513
1 0.409709 9.38667 -9.24153
1 -0.501786 9.09723 -9.3214
1 -0.774886 8.15643 -9.3535
1 -1.44112 8.73609 -9.73519
1 -4.66678 5.542 1.05292
1 -4.34079 4.74298 1.50447
1 -3.44342 5.08997 1.57494
1 -3.68155 4.43499 2.24546
1 -4.49835 4.53807 2.71266
1 -3.90534 4.42167 3.39869
1 -4.34414 3.64768 3.84935
1 -4.05175 2.81151 4.07631
1 -4.26233 2.83894 3.13597
1 -4.26473 1.93529 2.96923
1 -5.8537 7.0801 0.844247
1 -5.37807 7.87145 1.10096
1 -5.97213 8.07528 0.369918
1 -6.28178 8.9247 0.546029
1 -6.35847 9.83856 0.186636
1 -6.89429 10.4992 -0.205842
1 -6.65036 10.5532 0.702434
1 -5.85698 -10.147 0.959272
1 -4.90772 -10.0169 1.17922
1 -4.90964 -9.14049 1.59922
1 3.69594 2.93062 1.63291
1 4.56605 2.6408 1.20664
1 5.28018 2.37076 1.82416
1 5.98527 2.52365 1.08914
1 6.863 2.91037 0.977718
1 6.49861 3.72758 0.94197
1 6.56538 3.52781 1.83937
1 6.44235 3.9133 2.70145
1 6.3166 3.03986 3.10556
1 6.13554 3.80446 3.64349
1 2.80862 -4.91169 3.31947
1 2.89269 -5.83488 3.6503
1 2.81723 -5.86516 4.58264
1 3.72498 -5.948 4.37335
1 4.61714 -6.33058 4.53412
1 4.74186 -5.50171 4.09323
1 4.99516 -4.79826 3.53213
1 4.20401 -4.5476 3.95783
1 3.87226 -5.37362 3.5336
1 4.17427 -6.25937 3.33256
1 7.22324 -0.809723 -2.95423
1 6.93821 -1.30076 -3.64871
1 6.69474 -2.161 -4.02269
1 7.62544 -2.45751 -4.06215
1 8.55545 -2.50745 -3.74595
1 9.18604 -2.84316 -3.08059
1 9.75167 -3.23502 -2.46327
1 9.78679 -3.797 -3.17093
1 -10.5984 -3.8929 -2.68825
1 -10.1799 -4.34304 -3.42053
1 -4.42558 -6.55904 9.48328
1 -4.00642 -5.94613 10.0785
1 -4.18816 -5.25738 -10.5626
1 -3.84545 -5.9282 -10.0591
1 -3.90845 -6.82486 -10.4012
1 -3.93958 -7.6457 10.3781
1 -4.89969 -7.77178 10.3351
1 -4.79546 -6.87598 10.3706
1 -5.18964 -6.82502 -9.99194
1 -5.15744 -6.03872 -10.493
1 -1.31342 6.58649 -5.17422
1 -1.41625 5.97134 -4.31548
1 -0.744867 5.67881 -3.72583
1 -0.136793 4.91707 -3.42892
1 0.179215 4.15556 -4.01181
1 -0.492531 3.70568 -4.5382
1 0.325582 4.0109 -5.0297
1 0.367776 4.94932 -5.24707
1 0.356974 5.25051 -4.36716
1 -0.559865 5.27505 -4.7408
1 1.29209 9.73245 5.93514
1 1.72609 8.92099 6.30598
1 2.62274 8.81259 5.83303
1 3.31765 9.29084 5.38891
1 3.5772 8.82738 6.16617
1 4.07568 8.101 5.75647
1 3.25678 8.21366 5.24329
1 2.34007 7.88047 5.36069
1 1.67875 7.30409 4.99039
1 1.96245 7.33315 4.10577
1 6.27218 1.50049 8.03392
1 6.43057 1.60911 7.14436
1 6.21643 1.24505 6.31708
1 6.47606 0.994224 5.39566
1 5.55766 0.733462 5.59575
1 4.63455 0.967632 5.53064
1 5.00058 1.88337 5.74213
1 4.86527 1.69659 4.81582
1 4.49605 2.49455 5.17852
1 3.99433 2.39733 6.02074
1 5.02937 -7.48238 2.20216
1 5.31712 -8.42363 2.34388
1 4.48916 -8.46477 2.85927
1 3.96098 -8.74324 3.67111
1 4.28518 -9.60871 3.91602
1 4.59302 -8.84436 4.53521
1 3.86767 -8.21385 4.63966
1 3.21402 -8.34338 5.4461
1 3.48911 -9.26347 5.72478
1 3.15886 -9.89198 6.41185
1 -1.71497 -0.0732826 7.52961
1 -2.61178 -0.38884 7.56287
1 -3.13909 -0.961532 8.24731
1 -3.18057 -0.680546 9.17138
1 -3.98489 -0.806036 9.69171
1 -4.73805 -0.957033 10.2894
1 -5.21404 -0.19028 9.94004
1 -6.077 -0.0705044 10.5241
1 -5.20136 0.254347 -10.3807
1 -4.32453 0.0410506 10.5394
1 3.16985 6.67345 -9.24439
1 3.81077 7.0289 -8.68923
1 4.5815 7.21031 -9.1504
1 5.19933 6.53989 -9.37107
1 6.07326 6.48234 -8.89871
1 5.63552 7.18229 -8.40953
1 5.63848 6.92198 -7.48984
1 5.29268 7.85748 -7.62949
1 6.19356 8.07584 -7.79899
1 5.64195 8.85989 -7.90177
1 -10.5528 3.05225 -10.4062
1 10.3875 3.3128 9.89753
1 9.99732 3.60366 9.08949
1 9.45938 2.79968 9.2254
1 10.2078 2.3565 9.48049
1 -10.1805 2.64735 9.18222
1 -9.89981 2.51009 8.26302
1 -9.74089 3.39928 8.56198
1 -9.0505 3.91007 9.01804
1 -8.33962 3.75281 8.43165
1 -2.31887 4.37164 9.46988
1 -2.07825 5.14201 9.99579
1 -1.74935 5.78363 -10.5987
1 -2.72275 5.82602 10.5115
1 -2.66968 6.66239 10.1281
1 -2.3464 7.2717 9.45084
1 -3.20852 7.57314 9.23048
1 -3.57674 6.77206 9.5376
1 -3.34184 6.34415 8.73849
1 -2.48266 6.70764 8.5049
1 -0.861722 5.53357 5.86806
1 -1.27899 6.3484 5.99301
1 -1.03669 6.18777 5.0835
1 -1.16234 7.01988 4.6273
1 -1.47247 7.32494 5.45439
1 -0.722498 7.5246 6.01932
1 -0.997 7.62867 6.91106
1 -0.728941 8.5204 6.57313
1 -0.769437 9.28822 7.18514
1 -1.50719 9.58842 7.77342
1 9.60889 7.27805 -2.83568
1 10.4103 7.70354 -2.91177
1 10.2022 8.02018 -2.03583
1 10.5183 8.64489 -2.64368
1 9.75984 9.12268 -2.64778
1 10.0416 9.14766 -1.65824
1 -10.3486 9.56795 -1.35841
1 -9.82489 9.99833 -0.647445
1 -8.99219 10.1366 -0.0568713
1 -8.37704 -10.3608 -0.0307836
1 6.87956 0.421105 9.43347
1 6.27823 0.180635 8.7785
1 5.55994 0.84135 8.53569
1 5.08116 0.346257 7.83912
1 4.32409 -0.279541 7.72669
1 3.88055 -0.354779 6.89786
1 3.86664 -1.11192 7.56752
1 3.27803 -1.37249 6.81834
1 2.63152 -0.996789 6.13238
1 1.7277 -1.00437 6.26204
1 -10.0168 9.67275 3.51623
1 -10.0307 10.4463 3.00948
1 -9.04556 10.3053 3.11851
1 -8.17299 9.98251 3.43287
1 -8.72931 10.1472 4.23912
1 -9.62596 10.3652 4.47992
1 -10.0544 -10.2112 3.90878
1 10.2981 -10.493 3.99382
1 -10.544 -10.5396 4.82575
1 10.0408 10.5178 5.4451
1 -1.79295 4.89037 0.344301
1 -1.57681 5.74899 0.663928
1 -1.91642 6.01912 -0.23839
1 -2.37332 6.26001 -1.04069
1 -1.73743 7.00737 -0.860922
1 -1.2482 6.56817 -1.51206
1 -1.05086 7.5281 -1.55338
1 -0.162944 7.44759 -1.12266
1 -0.199634 7.83135 -2.03868
1 -0.745083 8.63662 -2.06787
1 -9.44304 4.52799 9.65232
1 -9.94336 4.17491 10.3887
1 -10.1755 3.9012 9.51527
1 -9.49909 3.2635 9.70716
1 -9.41125 3.21649 -10.5909
1 -8.55778 2.91526 10.3115
1 -7.73491 2.43417 10.0556
1 -8.45771 2.16584 9.42774
1 -8.7274 1.72206 10.2651
1 -9.47633 2.29785 10.1205
1 7.2494 2.30989 -3.40166
1 7.47017 1.56595 -4.0106
1 8.2219 2.10121 -4.38182
1 8.79636 1.79804 -3.74503
1 9.14546 2.56251 -4.15501
1 9.80714 1.91121 -4.52789
1 10.5033 1.63598 -5.08925
1 10.0692 0.825973 -4.59822
1 -10.4699 0.266424 -4.937
1 -9.7063 0.682841 -4.33511
1 -9.82837 -9.11604 -3.97301
1 -10.5453 -9.69565 -4.17956
1 10.3138 -9.28881 -3.48047
1 9.63569 -9.02112 -2.76024
1 9.49699 -8.1351 -2.47187
1 10.2842 -8.31642 -1.89009
1 10.2661 -8.03757 -0.97155
1 10.4077 -7.08848 -0.700366
1 9.68597 -7.29299 -1.22645
1 8.91881 -7.87168 -1.45802
1 2.09508 5.24718 8.68646
1 1.28139 5.48827 8.14934
1 1.21223 4.5969 8.4483
1 0.682836 4.97131 9.23299
1 0.30773 5.23137 8.33898
1 -0.418538 5.74424 8.75143
1 -0.537655 4.8151 8.84439
1 -0.913337 3.99028 8.47965
1 -1.3922 3.79636 9.23498
1 -1.02462 4.48184 9.77237
1 4.92297 -9.35989 -10.4192
1 5.58934 -9.54771 10.1496
1 5.8826 -8.91124 9.47331
1 6.82987 -9.03284 9.31635
1 6.62186 -9.87333 9.80021
1 6.64121 -10.5253 9.04947
1 6.77353 9.83216 8.8512
1 5.98382 9.74564 9.30522
1 5.39936 10.5297 9.5108
1 5.72239 -10.0144 9.01949
1 10.3578 4.2863 -2.8113
1 -10.0792 4.69395 -2.79119
1 -9.84626 3.79248 -2.71669
1 -9.29525 3.29269 -2.00252
1 -8.84209 2.52565 -1.70185
1 -8.71813 2.68039 -2.66778
1 -8.82883 3.58003 -2.91418
1 -9.40157 3.62653 -3.66843
1 -10.3049 3.24502 -3.57616
1 -10.2203 2.74096 -2.70498
1 4.44576 0.426039 3.82844
1 5.00954 -0.321933 3.73576
1 4.49682 -1.15074 3.58048
1 3.65528 -1.53975 3.84019
1 2.72801 -1.80123 4.07952
1 2.54588 -0.89528 4.42361
1 3.07935 -0.324797 5.0297
1 3.16176 -1.22654 5.22244
1 3.92318 -0.680231 5.43503
1 3.82706 0.253248 5.55834
1 -7.95879 -1.44143 -8.12974
1 -7.87504 -1.082 -8.97888
1 -7.14637 -0.59868 -9.27698
1 -7.31759 -0.442076 -8.39501
1 -7.89298 0.0371524 -7.84271
1 -8.28251 0.923989 -7.93232
1 -9.17957 1.18655 -8.23018
1 -8.9326 2.0913 -8.14939
1 -9.05787 3.00609 -8.41592
1 -8.40076 3.76945 -8.40352
1 -1.57847 -0.017918 2.61875
1 -1.76654 -0.890364 2.64708
1 -0.839513 -0.595836 2.70402
1 -0.371638 -1.4997 2.75111
1 -0.54024 -2.08355 3.49197
1 -1.40986 -2.36983 3.38312
1 -2.33245 -2.49231 3.41918
1 -2.84029 -3.21308 3.8945
1 -3.55608 -2.68738 3.59596
1 -3.14584 -1.98195 4.05491
1 -4.88443 -6.88028 8.50169
1 -5.12587 -6.255 7.8102
1 -5.74023 -5.67105 8.22436
1 -6.72777 -5.79581 8.19565
1 -7.32733 -5.39824 8.84845
1 -7.87172 -4.64492 8.66719
1 -7.4997 -4.13096 7.982
1 -8.2745 -3.87039 7.49338
1 -8.64328 -3.68663 8.3748
1 -8.86266 -3.43221 9.28923
1 1.60533 3.08553 -0.397153
1 0.623756 2.90592 -0.595594
1 0.384149 3.4649 0.101423
1 -0.106122 3.80408 -0.654399
1 0.467544 4.42969 -0.206369
1 0.906112 4.80657 -1.08168
1 0.24331 5.36963 -1.40224
1 -0.145863 5.58532 -0.564775
1 -0.493215 6.15688 0.206157
1 -0.808461 6.55034 -0.590403
1 1.96029 -0.831456 -8.43515
1 1.35252 -1.54333 -8.12297
1 1.21968 -1.0529 -7.34776
1 1.99409 -0.480842 -7.49915
1 1.40844 0.157144 -7.96385
1 2.25384 0.414485 -8.25619
1 2.04973 -0.00444647 -9.11535
1 2.97438 -0.210934 -8.95157
1 3.52672 0.0601369 -9.67263
1 4.37437 -0.150088 -9.99495
1 -8.42049 0.18919 0.391417
1 -8.49621 -0.20417 1.31036
1 -8.27912 0.754805 1.27889
1 -9.04033 1.20449 0.866415
1 -9.50902 1.29719 1.70543
1 -8.73767 1.56542 2.06689
1 -7.79568 1.87199 2.15001
1 -7.8821 2.82433 2.35005
1 -8.02231 2.48353 1.47715
1 -7.63236 3.34642 1.3691
1 -10.3192 -7.73076 -3.9233
1 10.3111 -7.05528 -3.99904
1 10.3319 -7.11786 -2.95976
1 10.5807 -7.26106 -2.06827
1 -10.31 -7.96279 -2.56009
1 -10.1297 -8.84243 -2.9915
1 10.5788 -9.19021 -2.33668
1 10.068 -9.23213 -1.57424
1 9.14885 -9.00235 -1.75828
1 9.24768 -9.44051 -0.949496
1 7.9696 -9.46492 -2.76054
1 8.85174 -9.72477 -2.57585
1 9.2646 -9.67352 -3.45707
1 8.65971 -8.82169 -3.37182
1 8.04235 -8.24446 -3.13729
1 8.20275 -8.4565 -2.16519
1 7.34959 -8.65444 -2.40514
1 6.75334 -9.0354 -3.00695
1 6.07072 -8.83109 -2.33311
1 6.3054 -9.69957 -2.02258
1 1.25587 2.9134 6.62034
1 1.20553 2.21141 5.89979
1 1.68643 1.40759 5.95753
1 1.39193 0.520187 5.48136
1 2.283 0.119577 5.61456
1 2.7593 0.897151 5.96182
1 2.03685 0.692193 6.60795
1 1.44686 0.380202 7.35348
1 1.20004 -0.175359 6.57067
1 0.251449 -0.420266 6.56976
1 0.733925 -8.60351 2.6722
1 1.43352 -8.99719 3.22721
1 1.69718 -8.31017 3.78595
1 2.18005 -7.54769 3.58649
1 2.2675 -8.14745 2.90333
1 2.73828 -8.51309 3.62408
1 2.29351 -9.3396 3.81025
1 2.66273 -9.97817 3.22572
1 2.72746 10.5093 2.62656
1 3.36582 10.3993 1.90909
1 -9.6366 6.59819 6.96738
1 -10.4144 7.05687 7.03237
1 -10.2014 6.75365 7.90999
1 -10.1399 7.44995 8.54859
1 -9.43933 7.3474 9.3169
1 -10.144 6.70915 9.38864
1 -10.0673 7.32403 10.1404
1 10.3187 7.00213 10.0236
1 10.0128 7.23952 9.09302
1 -10.5638 7.85967 9.3809
1 -8.33205 5.05568 0.549976
1 -8.61008 5.45625 1.4866
1 -8.11004 5.59115 2.28348
1 -8.05663 5.85659 3.23258
1 -7.58661 5.05166 3.43064
1 -6.7522 4.55363 3.3274
1 -6.41929 4.77807 4.19819
1 -6.37693 3.83064 4.01385
1 -5.85453 3.1569 4.52001
1 -5.267 3.8905 4.43123
1 2.26518 -3.48438 -10.605
1 1.68999 -3.84333 -9.93572
1 1.14065 -4.48322 -10.5582
1 1.48054 -3.901 9.98032
1 1.2429 -4.55875 9.32385
1 1.05932 -5.35228 9.80577
1 1.54362 -5.95394 10.3683
1 1.02644 -6.79063 10.4248
1 1.08024 -7.55298 -10.2998
1 0.579278 -7.45046 -9.47813
1 0.912723 7.07659 -6.67997
1 1.47434 6.26284 -6.61732
1 1.56108 6.90988 -5.87023
1 1.64459 7.62063 -5.28856
1 0.990525 7.87554 -5.94699
1 1.90901 8.17588 -6.17262
1 2.50656 7.36497 -5.96581
1 2.10009 7.17583 -6.80754
1 1.49592 7.72839 -7.28086
1 1.29835 8.63591 -7.08071
1 -5.01542 3.4679 -7.26182
1 -4.59277 3.06588 -6.5357
1 -4.40002 2.57244 -7.3569
1 -3.65007 3.19465 -7.12258
1 -3.93501 3.89073 -7.72476
1 -3.22965 4.4814 -7.41444
1 -2.69445 5.06488 -7.9752
1 -2.40427 4.79798 -8.917
1 -3.28349 5.19128 -9.05463
1 -3.69644 4.39579 -8.63137
1 -0.303234 3.134 -5.43523
1 -0.328481 2.21995 -5.66775
1 0.560071 2.57102 -5.68508
1 0.622036 3.52084 -5.98379
1 -0.206473 4.00825 -6.02457
1 0.0626039 3.77561 -6.97328
1 0.843692 4.19204 -6.66234
1 1.04562 4.43757 -5.76802
1 0.839041 5.27109 -6.2645
1 1.20444 5.61073 -5.47215
1 9.01746 6.45175 -8.64354
1 8.48863 5.74645 -9.04663
1 8.11325 5.94773 -9.89836
1 7.178 5.8039 -10.0638
1 6.25487 5.7601 -9.77015
1 5.80717 5.46776 -8.98517
1 5.00136 5.55303 -9.52353
1 4.22501 5.16987 -10.0188
1 3.56824 4.56258 -9.99914
1 3.58855 5.14696 10.5162
1 9.52179 -8.91971 5.85859
1 9.27204 -9.16836 6.78209
1 8.90782 -8.97113 7.63814
1 9.02872 -9.89136 7.56654
1 9.68431 -9.86479 8.23783
1 9.93342 -9.01496 8.73882
1 -10.2713 -8.84892 8.97082
1 -9.64095 -8.19809 8.75723
1 -9.46031 -7.23919 8.75183
1 -9.7606 -6.35572 8.82787
1 -9.91282 5.88054 9.93792
1 10.4549 5.70529 10.0207
1 10.6119 5.02454 9.3445
1 10.1 4.66049 8.69985
1 9.68423 4.98951 7.86813
1 8.74256 4.71035 8.17084
1 8.39092 5.41115 7.62973
1 8.20793 5.74186 6.69848
1 8.49929 6.61943 7.05444
1 7.65416 7.00993 7.22214
1 -9.21334 -3.7396 0.0619641
1 -10.117 -3.92003 0.11784
1 10.5566 -3.73942 0.793203
1 9.91116 -3.6302 0.0909564
1 9.21084 -3.16291 0.393174
1 8.83187 -2.85608 -0.424371
1 9.03554 -2.15638 0.261411
1 9.57598 -1.42908 -0.107544
1 10.2571 -0.819781 0.157497
1 10.5196 -1.73359 0.223052
1 8.23146 -9.89615 -3.67061
1 8.77046 -10.6217 -3.84333
1 9.72697 10.5203 -3.77014
1 9.81817 -10.0286 -4.39277
1 9.79796 -9.47533 -5.20135
1 9.97761 -10.4835 -5.39371
1 10.4131 -10.0579 -6.1966
1 9.54053 -9.60539 -6.30956
1 8.78542 -9.07524 -6.35777
1 7.99322 -9.05222 -6.85094
1 -10.4464 -1.33588 -8.60141
1 -10.6174 -0.556994 -9.1626
1 9.87751 -1.10815 -9.438
1 9.12893 -1.17709 -8.76839
1 8.56393 -1.70561 -9.30878
1 8.88631 -2.64774 -9.33296
1 8.54623 -2.60063 -10.2469
1 7.89601 -1.85294 -10.1254
1 7.19467 -1.54991 10.5707
1 6.76835 -1.9999 -9.97212
1 -6.63442 5.74423 10.2377
1 -5.70951 6.06298 10.4318
1 -5.40186 6.87408 -10.5042
1 -6.14985 7.35028 -10.105
1 -5.7971 7.7701 10.3215
1 -6.73718 8.18554 10.2337
1 -5.99848 8.76813 9.79729
1 -5.7306 7.97847 9.33152
1 -5.89391 8.54434 8.54954
1 -5.65592 9.40415 8.86677
1 0.411409 0.591169 6.33408
1 1.05571 1.01883 6.86697
1 1.13869 1.86085 7.3957
1 0.275978 1.32496 7.24991
1 -0.667738 1.48551 7.2868
1 -0.732509 0.645036 7.76866
1 -0.774078 1.15715 8.58311
1 -0.107008 0.435615 8.83253
1 0.750357 0.348438 8.285
1 0.363477 0.328779 7.41894
1 -2.75059 4.52176 2.16561
1 -2.29544 3.98974 2.79933
1 -1.42288 4.26788 2.5688
1 -1.40558 5.12518 2.20754
1 -1.33371 5.886 1.66974
1 -0.92178 6.12099 2.46343
1 -0.263724 6.26072 3.11313
1 -1.02236 5.99467 3.60992
1 -1.87034 5.58091 3.29575
1 -1.27911 4.89765 3.63965
1 8.98815 -10.1211 -5.44646
1 8.47183 -9.37626 -5.47895
1 8.20598 -8.43637 -5.4456
1 7.93905 -7.95637 -6.22934
1 7.05159 -8.08994 -5.94807
1 6.95942 -7.28866 -6.44644
1 7.70497 -7.23627 -6.99433
1 6.94525 -7.58018 -7.4904
1 7.58959 -7.93203 -8.10188
1 7.72715 -7.79629 -9.03798
1 -2.91969 8.50357 3.63834
1 -3.31703 8.23743 2.81441
1 -4.26523 8.22787 2.90516
1 -4.45123 9.00241 2.42697
1 -5.39563 9.07022 2.3316
1 -5.69007 9.2496 3.23581
1 -5.20457 8.39204 3.12828
1 -4.61785 8.17948 3.89172
1 -4.56028 8.22038 4.81666
1 -4.31067 8.3426 5.73504
1 5.67564 -3.69957 -8.68057
1 5.16642 -4.51215 -8.92701
1 5.92705 -4.88541 -8.54833
1 6.24417 -4.44188 -7.83324
1 7.02156 -4.23945 -7.26465
1 6.88384 -3.67573 -6.49291
1 6.73036 -2.94075 -5.82268
1 6.91514 -2.25975 -5.26813
1 7.18741 -1.48297 -4.70646
1 8.03635 -1.54951 -4.29477
1 9.85867 1.43537 -5.83272
1 10.4422 1.75485 -6.5748
1 9.74129 2.32627 -6.35885
1 8.88805 2.15151 -6.84936
1 8.2524 2.51433 -6.21567
1 7.37284 2.04916 -6.16666
1 7.5912 2.33187 -7.03999
1 6.68693 2.48964 -6.93755
1 6.24286 2.68289 -7.81934
1 6.52621 3.29706 -8.54794
1 -3.21317 -4.75552 -2.95292
1 -3.77458 -5.51814 -2.72024
1 -2.98173 -6.02515 -2.72808
1 -2.27273 -6.25003 -3.29211
1 -2.95558 -5.99325 -3.8915
1 -2.47869 -5.21292 -4.0554
1 -2.08991 -5.19013 -3.17894
1 -1.35235 -4.63674 -3.4135
1 -1.36706 -3.69497 -3.31712
1 -0.706487 -4.00145 -2.73896
1 -1.53314 3.21087 -4.66226
1 -2.1642 3.49793 -5.34501
1 -2.83703 3.38067 -4.68433
1 -2.75114 4.29985 -4.21628
1 -2.41412 5.18895 -4.46425
1 -1.6166 5.07569 -3.91764
1 -0.873163 4.43254 -3.97043
1 -1.66017 3.94735 -3.85521
1 -1.72034 4.25592 -4.75836
1 -1.58452 5.1438 -5.09382
1 -8.44206 3.02682 0.77853
1 -8.76342 3.92924 0.935729
1 -8.28056 4.43878 1.70737
1 -7.60498 4.97767 1.25635
1 -7.086 5.7092 1.65777
1 -7.05854 6.43844 1.08139
1 -7.61331 6.28082 0.295278
1 -6.83094 6.42652 -0.248065
1 -6.55308 6.6256 -1.17442
1 -6.73724 6.01104 -1.83395
1 -1.14346 -6.85308 -7.13204
1 -1.53803 -7.73397 -7.1081
1 -2.14838 -8.30338 -6.67249
1 -2.96363 -8.44646 -7.07117
1 -3.53871 -8.37369 -6.33749
1 -3.287 -7.553 -6.03985
1 -2.47073 -7.89889 -5.67934
1 -2.20119 -8.82951 -5.69917
1 -2.01915 -9.65414 -6.1596
1 -1.3841 -8.97148 -6.47662
1 4.01538 -8.67499 -0.920267
1 3.2174 -8.4425 -0.452871
1 3.93947 -8.65756 0.162505
1 4.358 -7.87229 -0.040026
1 3.47465 -7.46219 -0.156442
1 3.86001 -7.54231 -0.97048
1 3.68218 -6.96521 -1.82
1 3.54758 -6.05801 -2.21148
1 4.43106 -6.32919 -2.50962
1 4.2947 -6.11418 -1.5583
1 -2.50762 -7.31999 7.44528
1 -2.66655 -7.19533 8.44341
1 -2.31893 -8.06406 8.47666
1 -1.71295 -8.87747 8.44082
1 -2.03623 -8.77344 7.57988
1 -1.70748 -8.87874 6.70341
1 -2.10986 -9.73371 6.51327
1 -2.72351 -9.33617 7.18385
1 -3.32831 -9.63862 6.50387
1 -3.37579 -10.5955 6.59512
1 -5.57054 2.5395 -6.79846
1 -5.95623 2.4435 -5.95677
1 -6.69647 2.54653 -6.49156
1 -6.9323 2.43982 -5.55432
1 -6.60968 2.33666 -4.6248
1 -7.01679 1.51029 -4.43053
1 -7.84597 1.32344 -4.84332
1 -7.51415 1.50751 -5.71312
1 -6.63295 1.17471 -5.76858
1 -7.16129 0.602344 -5.14871
1 8.81539 -0.123322 -2.06547
1 8.9901 0.716551 -2.51141
1 9.24342 1.65783 -2.73069
1 10.0633 1.16366 -2.53759
1 10.1637 0.397371 -3.08337
1 9.59236 1.03019 -3.61134
1 9.05399 0.465476 -4.12478
1 8.07646 0.761553 -4.36075
1 8.21345 -0.15837 -4.53141
1 7.94646 0.358389 -5.30702
1 -1.31511 -5.59408 3.57256
1 -0.894975 -5.32984 4.44417
1 -1.89043 -5.38295 4.50483
1 -2.78221 -5.12602 4.1579
1 -3.17286 -4.34159 3.87339
1 -4.06952 -4.32993 3.46773
1 -3.68345 -3.56534 3.03951
1 -2.8845 -3.20177 2.62393
1 -2.58308 -4.10817 2.97697
1 -1.86295 -4.60662 3.37598
1 -7.06299 10.5684 -3.03388
1 -7.23544 -9.95523 -3.65532
1 -7.97908 -10.4401 -4.09824
1 -8.64106 -10.4746 -4.8812
1 -8.5003 -9.64939 -4.63916
1 -8.77198 -8.96296 -4.02592
1 -8.33519 -8.11246 -3.99435
1 -7.89442 -7.23461 -4.00978
1 -8.42161 -6.46585 -3.75496
1 -7.88068 -5.78102 -4.3129
1 5.30346 10.5918 -7.86928
1 5.77252 -9.85434 -7.86058
1 6.60146 -9.70392 -7.43787
1 6.00656 -10.3658 -7.0829
1 5.69477 10.4507 -6.33611
1 4.79466 10.2997 -6.01862
1 5.30223 -10.3484 -5.42516
1 4.33441 -10.0764 -5.658
1 3.8919 -9.21741 -5.61248
1 3.62725 -9.53657 -6.48525
1 10.4334 4.31085 -7.08745
1 -10.2603 5.14696 -7.11012
1 10.0961 5.26531 -6.83596
1 9.74489 6.06203 -6.45182
1 8.96507 5.67358 -6.02631
1 8.45566 6.54352 -5.90833
1 7.94634 5.74329 -5.97855
1 7.1585 6.02585 -5.51779
1 7.40189 6.40022 -4.64298
1 7.65567 6.43409 -3.76057
1 7.67304 -5.84628 -4.25816
1 6.95177 -5.29245 -4.06898
1 7.6685 -4.58904 -3.91458
1 6.97999 -4.6519 -3.29327
1 7.07546 -3.67922 -3.3673
1 6.57386 -2.83987 -3.23439
1 6.392 -3.5234 -2.64475
1 6.46169 -2.89572 -1.95814
1 5.61481 -3.33186 -1.89312
1 5.23745 -2.59184 -2.38816
1 -9.36154 8.45128 4.57085
1 -8.58999 8.40817 4.04536
1 -8.82156 8.94032 3.2726
1 -8.62393 8.52355 2.40156
1 -7.69211 8.62572 2.81255
1 -6.73246 8.5444 2.89938
1 -6.91413 9.38833 3.27648
1 -6.95083 9.33826 2.34963
1 -6.20463 9.92777 2.57188
1 -5.48382 10.1936 3.20004
1 0.22136 0.893653 9.75296
1 -0.206953 1.32611 10.4769
1 -0.684561 1.7267 -10.09
1 -0.602002 2.58194 -9.7274
1 0.0800653 3.31493 -9.86543
1 0.175428 3.98584 -10.5536
1 -0.327866 4.36797 -9.78112
1 -1.1313 4.9822 -9.57202
1 -0.708912 5.08411 -10.4423
1 0.0369244 5.04884 10.1478
1 -4.88784 5.28452 -8.33371
1 -4.70778 6.20089 -8.05713
1 -4.73207 5.78881 -7.20509
1 -4.08035 5.10581 -7.44144
1 -4.4387 4.99293 -6.52352
1 -4.31395 4.08603 -6.37789
1 -4.29125 4.02905 -5.44606
1 -3.71273 4.76842 -5.23119
1 -3.56866 5.21069 -4.3866
1 -4.05871 4.47506 -4.15022
1 -0.534268 1.6066 4.22896
1 -0.473877 2.51727 4.12242
1 -0.409729 2.40613 3.20812
1 -0.468098 2.07619 2.32133
1 -1.36267 2.04258 2.66282
1 -1.60882 2.19509 3.61089
1 -1.41976 2.71365 4.43983
1 -2.38011 2.70549 4.54672
1 -3.25601 2.35333 4.8245
1 -3.78924 2.70585 5.50864
1 -3.07417 8.82845 -0.0676245
1 -3.97933 8.34337 0.108009
1 -4.75449 7.9169 -0.0952702
1 -5.02634 8.80325 0.198331
1 -5.53022 9.26397 -0.451255
1 -5.5075 10.1945 -0.208476
1 -4.71777 10.6009 -0.421863
1 -4.18243 10.5788 -1.19887
1 -4.0745 10.3807 -2.16105
1 -3.19072 10.1591 -2.32539
1 -1.96578 1.68855 -9.65439
1 -2.11198 2.5918 -9.32128
1 -3.04162 2.17736 -9.30754
1 -2.93649 1.58363 -10.0774
1 -3.30075 1.06225 -9.32187
1 -3.28927 1.5106 -8.43896
1 -3.38461 2.16235 -7.72222
1 -2.81695 2.70365 -8.3692
1 -3.05005 3.61398 -8.24831
1 -2.25655 3.47892 -8.74528
1 -1.35872 -4.69443 1.3563
1 -1.07658 -5.05728 2.30471
1 -1.73974 -4.44656 2.33358
1 -2.26773 -3.85943 1.80354
1 -2.34445 -3.11104 1.22167
1 -2.5371 -3.05683 0.338953
1 -1.92832 -3.65851 -0.190068
1 -1.68673 -4.40308 0.415182
1 -2.55854 -4.14931 0.781398
1 -2.34249 -5.09792 0.530247
1 8.87221 10.2608 8.67603
1 9.39031 9.69546 9.18949
1 9.291 10.2552 9.98215
1 9.59007 -10.502 9.24895
1 10.3807 10.3081 9.65009
1 -10.0467 -10.6208 9.81968
1 -9.17197 -10.2973 9.65523
1 -8.39728 -10.4111 10.2774
1 -7.7705 -9.74719 10.5252
1 -6.97263 -9.32296 10.4703
1 0.337265 3.21005 3.22868
1 1.0098 3.32179 2.52883
1 0.113221 3.74347 2.2364
1 0.474256 3.83377 1.30719
1 1.10297 4.31052 0.693593
1 1.96642 3.75565 0.609867
1 2.24459 4.318 1.31984
1 2.89767 4.38976 1.98211
1 2.83994 3.37241 1.87163
1 3.46245 3.88991 1.29156
1 -10.0475 0.904113 -1.16334
1 10.4348 1.39191 -1.2463
1 9.54318 0.917398 -1.11138
1 8.97023 0.123885 -1.10784
1 8.42552 0.389687 -0.355856
1 8.70829 1.32793 -0.431589
1 9.43198 2.0229 -0.548617
1 8.56308 2.31595 -0.965476
1 7.87066 2.04128 -1.50456
1 8.17184 1.90304 -2.42543
1 6.65368 0.554927 7.38599
1 5.78474 0.695806 7.01258
1 6.37831 0.0541046 6.5396
1 5.81249 -0.335169 5.94779
1 5.87426 -1.18158 6.32954
1 6.50861 -1.23696 5.65265
1 7.19551 -1.52674 5.04987
1 6.72993 -2.32387 5.06119
1 5.89997 -1.72469 5.00552
1 5.38391 -0.944022 5.19502
1 -5.99508 -1.54426 -5.96777
1 -5.22663 -1.23126 -6.50139
1 -4.31868 -1.38305 -6.88262
1 -4.51321 -1.94621 -6.1673
1 -4.34505 -1.11073 -5.73726
1 -4.29664 -0.226103 -6.02793
1 -4.14962 0.673162 -6.25924
1 -4.72594 1.11364 -6.86397
1 -4.20201 1.87575 -6.38924
1 -3.32069 1.53231 -6.16427
1 4.2088 -1.04734 -9.467
1 5.07622 -1.31103 -9.06826
1 5.47939 -0.613986 -9.68045
1 6.11496 -0.583115 -8.91417
1 6.40343 0.337689 -9.17165
1 5.47144 0.271075 -9.01041
1 5.03381 0.717949 -9.73069
1 4.34672 0.407953 -9.09514
1 4.03038 -0.217148 -8.47325
1 4.96661 -0.260845 -8.27699
1 -0.526654 -2.36437 8.07982
1 -1.1514 -2.72084 8.77447
1 -0.403434 -3.30474 8.66101
1 -0.385178 -3.39765 7.6204
1 0.298871 -3.64423 6.99816
1 0.613559 -4.59387 6.91615
1 0.875409 -4.1879 7.74238
1 0.494871 -4.30384 8.5719
1 0.257109 -5.00285 9.13238
1 0.12544 -5.59552 8.4223
1 -1.77626 -0.924142 8.60727
1 -2.30806 -1.53013 9.15843
1 -2.12187 -0.687263 9.57587
1 -2.06887 0.0209951 8.9654
1 -1.83066 0.665233 8.2703
1 -2.06967 1.56748 8.00228
1 -1.61713 1.06571 7.23285
1 -2.30282 0.523746 6.92802
1 -3.07353 0.868895 6.4932
1 -3.2873 1.81849 6.52561
1 -9.89533 -10.3584 -7.03671
1 -9.82402 -9.45877 -6.69332
1 -10.5749 -9.06 -6.24226
1 -9.93513 -8.43497 -6.0759
1 -9.42132 -8.57311 -5.29966
1 -9.40165 -8.14776 -4.44927
1 -9.01694 -7.26705 -4.27264
1 -9.24172 -7.36469 -3.30186
1 -9.48551 -6.43116 -3.34388
1 -8.76901 -6.67289 -2.7147
1 4.11874 -3.64406 3.40174
1 4.90855 -3.71817 2.79687
1 5.75323 -3.56582 2.3658
1 5.21512 -3.92246 1.55107
1 5.15006 -3.00547 1.28872
1 5.64421 -2.433 1.78391
1 6.35574 -2.35616 2.37853
1 5.95544 -2.76964 3.11467
1 5.03202 -2.59928 2.92513
1 5.63102 -1.76986 3.13809
1 -5.10908 -5.23094 10.0517
1 -5.06155 -4.25277 10.1231
1 -5.56026 -4.31473 9.32653
1 -4.66346 -4.57002 9.12971
1 -4.7754 -3.60399 9.29068
1 -5.15075 -3.69216 8.37
1 -4.25004 -3.78239 8.49469
1 -4.12968 -4.58983 8.03741
1 -3.34534 -5.1174 7.92693
1 -3.87991 -5.97446 8.1055
1 4.91059 -8.13702 3.75892
1 5.77281 -8.28191 3.9859
1 5.68647 -8.42734 4.91026
1 5.35611 -8.94481 5.58896
1 5.69492 -9.12383 6.46674
1 5.86728 -8.32919 6.87627
1 5.69408 -8.02661 7.78682
1 5.77446 -8.97476 7.99991
1 6.13269 -9.46696 7.2858
1 5.96926 -10.0899 6.56586
1 6.83443 -6.11419 4.03166
1 7.62382 -6.59043 4.38829
1 7.94994 -6.29879 5.26399
1 8.8719 -6.59077 4.78411
1 9.27992 -7.4689 4.9408
1 9.60138 -7.44554 4.02753
1 9.64923 -6.50806 4.11514
1 9.67473 -5.61159 4.34636
1 8.7705 -5.71471 4.03657
1 8.83784 -5.53634 4.98747
1 -7.53978 5.04023 -4.23184
1 -8.12212 5.79627 -4.12216
1 -8.62241 5.79831 -3.34382
1 -7.74155 5.45042 -3.12302
1 -8.4223 5.25351 -2.47089
1 -8.44592 4.33948 -2.25186
1 -9.34093 4.75368 -1.87418
1 -9.85704 3.98947 -1.59076
1 -9.6941 4.378 -0.718954
1 -9.36398 3.81345 -0.0216882
1 3.42308 -2.84918 8.37797
1 3.77282 -3.68875 8.68013
1 3.2432 -4.05087 7.99706
1 3.81681 -4.66014 7.53986
1 3.17471 -5.0805 8.12953
1 3.64655 -5.85235 7.77726
1 3.71211 -6.57379 8.3068
1 3.84084 -5.71832 8.75621
1 4.22801 -4.78386 8.49062
1 3.45607 -4.60784 8.99753
1 3.01245 9.9977 4.67605
1 3.26126 10.5882 3.95238
1 2.99667 9.76429 3.51797
1 2.24817 10.2637 3.67266
1 1.52781 10.3427 4.30713
1 0.596953 10.0895 4.4349
1 0.578503 9.19752 4.79379
1 0.328044 8.28327 4.60306
1 0.319946 8.833 3.86744
1 1.18971 9.30854 3.86712
1 6.85309 8.51072 -4.94879
1 6.87187 9.47579 -4.63427
1 6.63898 10.1447 -4.03359
1 7.08697 -10.2933 -3.65265
1 7.45703 -10.2965 -2.76712
1 6.87555 -10.5747 -2.0843
1 7.54056 10.3057 -1.59409
1 6.83092 9.89927 -1.14162
1 7.46949 9.48536 -0.559962
1 8.26755 8.86168 -0.450461
1 3.96255 8.07181 -6.1119
1 3.39047 7.65894 -5.45428
1 2.86075 8.41645 -5.58936
1 3.01622 8.0999 -6.46451
1 3.09039 7.31612 -6.97591
1 3.36716 6.89372 -6.1587
1 2.63601 6.35327 -6.40054
1 2.52653 5.80749 -5.62031
1 1.94392 5.31632 -6.24404
1 1.73313 4.94577 -7.05662
1 -7.32333 -4.82573 10.1177
1 -7.68195 -4.88792 -10.2633
1 -7.98492 -5.11562 -9.34777
1 -8.90761 -5.14578 -9.35164
1 -9.77736 -4.79882 -9.72372
1 -9.8505 -5.07101 10.5704
1 -9.4314 -4.55777 9.91004
1 -9.45346 -5.30905 9.34685
1 -8.88185 -4.67422 8.91347
1 -9.57722 -4.01359 8.81701
1 5.06584 10.0699 -2.95886
1 5.07175 9.60434 -2.1885
1 5.71874 9.48942 -1.47994
1 5.9186 10.3553 -1.84905
1 6.23362 -10.4396 -1.12978
1 6.77258 -9.79573 -0.650712
1 6.52606 -8.93323 -0.224277
1 6.3273 -9.17315 0.580371
1 5.5877 -9.48859 0.0325062
1 4.76021 -9.08643 -0.25466
1 -6.74867 -4.63087 -5.54743
1 -5.79728 -4.72435 -5.38137
1 -5.09638 -5.21609 -4.99107
1 -4.53946 -4.73859 -5.56403
1 -4.48543 -4.37744 -4.7436
1 -4.2619 -3.49655 -5.03704
1 -4.98666 -3.77022 -5.60648
1 -5.4633 -3.91767 -4.79961
1 -6.40603 -4.12523 -4.63406
1 -6.08481 -3.30831 -4.2839
1 2.28049 -3.67751 1.86658
1 1.82891 -2.92978 2.11516
1 1.83899 -3.35712 2.96578
1 1.13856 -3.86487 3.3347
1 1.99468 -4.23181 3.46733
1 2.00814 -3.44347 4.05565
1 1.18771 -3.00205 3.88154
1 1.33519 -2.4923 4.67632
1 0.708562 -3.13071 4.92788
1 0.132195 -2.68665 4.30727
1 -5.32368 -10.0717 -4.75133
1 -5.9462 10.5478 -5.11443
1 -6.1712 -10.5335 -6.03692
1 -6.58388 9.87331 -5.63749
1 -7.33671 9.18623 -5.3966
1 -7.10961 8.7197 -4.56431
1 -6.31616 8.14279 -4.80901
1 -5.83418 7.56289 -5.44948
1 -5.33676 6.8707 -5.04414
1 -5.94068 6.669 -5.82524
1 2.20163 -7.95811 -0.242737
1 2.66441 -7.62092 -0.944999
1 2.48515 -7.76915 -1.85957
1 2.77217 -7.90306 -2.79084
1 2.95714 -8.70463 -2.34365
1 3.55668 -8.23905 -1.68771
1 4.42533 -7.93306 -1.98377
1 4.99756 -8.15172 -1.26863
1 5.92939 -8.08633 -1.30502
1 6.62061 -7.93305 -0.718271
1 -6.16892 -4.5169 -2.82903
1 -5.75923 -3.6967 -2.36343
1 -5.45979 -2.9274 -1.92219