8000
Atoms. Timestep: 10000000
1 -8.12448 -4.20769 3.36676
1 -7.60009 -4.83806 3.98669
1 -6.90582 -5.26145 4.44092
1 -7.67975 -5.74688 4.7782
1 -7.86141 -6.25338 4.00036
1 -8.1465 -5.6129 3.39768
1 -7.19641 -5.61324 3.45505
1 -7.56933 -5.44793 2.6008
1 -7.00367 -4.7175 2.81675
1 -6.11348 -4.76091 3.18837
1 -7.02484 8.94377 -8.23169
1 -7.94384 9.14217 -8.13376
1 -8.77087 9.4954 -7.9227
1 -8.6252 9.36682 -6.97827
1 -7.87847 8.84284 -6.6293
1 -8.1018 9.56564 -6.02498
1 -7.25112 9.85024 -5.71683
1 -7.07966 8.9667 -5.34675
1 -6.09961 8.9854 -5.26932
1 -6.18287 8.05278 -5.20769
1 4.82839 -8.1045 -3.06984
1 5.24297 -7.66353 -3.73125
1 5.88818 -8.27421 -4.06281
1 6.18165 -9.16919 -4.11197
1 5.45867 -9.51567 -3.59194
1 4.96106 -8.80634 -4.02557
1 4.26007 -9.25828 -3.50227
1 4.0158 -8.39875 -3.71523
1 3.50439 -9.08214 -4.11882
1 3.28621 -9.85119 -3.6239
1 0.206984 -5.38064 7.50134
1 0.840483 -5.84565 6.94688
1 1.59213 -5.90963 6.38258
1 1.32694 -6.31103 5.4729
1 1.66624 -5.50104 5.02396
1 0.813042 -5.3232 5.43717
1 0.197114 -4.58069 5.22351
1 0.773159 -3.9037 5.3847
1 0.578966 -3.19257 5.96261
1 0.74534 -2.7233 6.85998
1 2.98483 -3.42083 2.99348
1 3.74926 -2.80167 2.90472
1 3.27105 -2.00709 2.50091
1 2.73433 -2.02666 3.30863
1 3.30661 -2.34547 4.01915
1 4.15225 -2.2827 4.4977
1 4.31473 -3.23837 4.19027
1 4.51772 -3.24957 3.29506
1 4.65422 -2.30926 3.65725
1 4.03244 -1.7839 3.13926
1 -7.77599 -0.0680105 7.41271
1 -7.3241 0.38973 8.09198
1 -7.83783 -0.397308 8.51466
1 -8.06642 -1.03648 7.77867
1 -7.86695 -1.88958 7.86518
1 -8.78974 -1.91411 8.10167
1 -8.70154 -1.97595 7.17708
1 -7.77461 -2.20176 6.89194
1 -7.1733 -1.46257 7.0976
1 -6.9116 -0.902598 7.81777
1 8.82728 -5.354 3.11423
1 8.7792 -6.104 3.60638
1 9.61125 -6.16689 4.15261
1 9.09666 -6.95825 3.86107
1 9.79054 -7.59776 3.61633
1 9.8458 -6.68575 3.30514
1 10.6103 -6.82108 3.81697
1 -10.4757 -6.35815 2.98171
1 -9.75123 -6.86994 3.2814
1 -9.55651 -7.25356 2.43074
1 2.41532 -10.3897 -4.97702
1 2.56676 -9.55073 -4.5806
1 1.83292 -9.00132 -4.31993
1 1.53377 -9.88763 -4.39781
1 0.867196 -9.26897 -4.37715
1 -0.0236041 -9.20435 -4.03827
1 -0.53702 -8.95581 -3.33814
1 -1.46923 -9.06776 -3.24708
1 -1.5212 -9.94273 -2.76976
1 -1.13961 10.4945 -2.93615
1 -10.4024 -5.81003 3.81547
1 10.1938 -5.36238 3.41555
1 9.75939 -4.88172 2.69085
1 10.2279 -5.60847 2.22156
1 -10.5818 -5.38304 1.40044
1 10.3435 -4.56244 1.71423
1 -10.061 -4.81446 2.05831
1 -9.86933 -5.04382 2.97702
1 -10.5529 -4.34701 2.75258
1 10.1911 -3.79424 3.29847
1 -1.20069 2.42015 5.74552
1 -1.41279 3.34386 5.54464
1 -2.14828 3.84418 6.02092
1 -2.50905 3.00984 5.88267
1 -3.23661 2.68782 6.50313
1 -3.26388 2.02677 7.29176
1 -2.37893 1.68533 7.40462
1 -1.889 1.85966 6.58117
1 -2.37845 1.06887 6.31383
1 -2.78719 1.89759 6.00623
1 2.08117 -7.5418 5.38111
1 2.00618 -7.01981 6.16259
1 2.36749 -7.92396 6.33222
1 3.00937 -7.27167 6.65005
1 3.33339 -7.9673 5.91077
1 3.24412 -7.05907 5.59025
1 3.29301 -7.29537 4.64314
1 3.08543 -8.06821 4.09085
1 2.57442 -8.72508 4.56152
1 2.7874 -8.90763 3.6267
1 8.08089 0.659924 3.01576
1 8.44821 0.678153 2.16975
1 8.11046 1.61443 1.99203
1 7.18964 2.0115 2.11896
1 7.91744 2.60665 2.25638
1 7.58089 3.53571 2.24575
1 7.46487 3.64836 1.28727
1 8.25444 4.07494 1.01144
1 7.98833 3.73345 0.149189
1 7.4927 4.33903 -0.453052
1 -0.21365 -3.25227 -6.38957
1 -0.0191088 -2.34505 -6.07434
1 0.217843 -2.55989 -5.11056
1 0.981078 -2.66864 -5.73857
1 0.789543 -3.52089 -6.12322
1 1.38284 -3.85374 -6.81529
1 2.216 -3.67966 -6.43881
1 2.26043 -3.72428 -5.4947
1 2.71 -3.49259 -4.66715
1 3.10668 -4.36434 -4.8608
1 3.96491 2.44175 -5.54161
1 4.76963 2.41349 -5.10562
1 5.18594 1.70905 -4.56054
1 5.33884 2.26977 -3.87383
1 5.47159 3.00502 -4.40904
1 5.45786 3.50558 -5.32699
1 5.95286 4.20146 -5.86283
1 5.96467 4.97978 -5.3762
1 5.10075 4.71817 -5.62208
1 5.16103 4.2977 -4.7468
1 -4.3233 8.16595 -2.13286
1 -4.23303 7.30208 -2.49125
1 -3.35879 7.61118 -2.31105
1 -3.39259 8.44022 -2.62279
1 -3.16057 8.51949 -1.68739
1 -2.20903 8.59739 -1.91593
1 -1.6919 8.40608 -1.15982
1 -0.785091 8.74816 -1.22743
1 -1.16785 9.15548 -0.439745
1 -1.3084 8.2595 -0.0334822
1 -2.92585 -2.0831 5.3638
1 -3.06929 -1.9558 4.46418
1 -2.15089 -1.8957 4.11015
1 -1.58235 -1.71785 4.89456
1 -2.05637 -1.96694 5.74994
1 -1.81687 -1.21407 6.24936
1 -2.39278 -1.06556 5.47295
1 -2.548 -0.777228 4.59192
1 -2.95612 -1.05398 3.68898
1 -3.87519 -1.5908 3.89356
1 -3.74848 3.56292 3.69627
1 -4.52668 3.99697 4.13117
1 -4.03214 4.80372 4.47262
1 -3.26593 4.41181 4.09362
1 -3.20363 5.39019 4.20457
1 -2.69032 5.24358 3.36855
1 -2.41187 5.79926 2.59814
1 -2.00352 5.03287 2.35936
1 -2.55978 5.36752 1.69589
1 -2.25689 4.81933 0.87346
1 2.86083 -4.63421 -10.1602
1 2.59154 -4.3889 -9.29416
1 2.81982 -3.56488 -8.89656
1 3.04581 -3.59106 -9.84458
1 2.15409 -3.22379 -9.75783
1 1.77222 -2.31909 -9.8579
1 1.39022 -1.56678 -10.3395
1 2.28022 -1.28968 -10.1193
1 2.67026 -1.32671 -9.29735
1 3.54837 -1.18665 -9.2239
1 8.87357 -0.761147 -7.74918
1 9.08426 -1.33815 -6.9117
1 8.85915 -2.24967 -6.65459
1 7.99887 -1.9128 -6.63927
1 8.07452 -2.3947 -7.39747
1 8.88101 -2.34317 -7.83206
1 9.70319 -1.94854 -7.42818
1 9.8588 -2.76882 -7.92377
1 9.71338 -2.84803 -6.93923
1 8.98642 -3.24933 -7.41011
1 -8.83662 3.24166 9.01209
1 -8.55955 4.13891 8.88003
1 -9.40629 4.70117 8.83246
1 -10.2564 4.38481 8.44515
1 10.2622 4.01017 8.87794
1 -10.3532 3.42652 9.15933
1 -10.0607 4.2505 9.50999
1 10.3391 4.46746 9.71598
1 10.1594 3.65946 10.1556
1 9.22321 3.6973 10.2933
1 -0.317798 -9.77337 -2.83809
1 0.619867 -9.52246 -2.96224
1 1.04487 -10.307 -3.41672
1 0.838165 10.4406 -4.14193
1 0.328437 9.70548 -3.88342
1 -0.432596 9.10453 -4.14891
1 -0.461451 8.1375 -4.22512
1 -0.129605 8.38816 -3.33589
1 -0.727913 7.69959 -3.10003
1 -0.406619 6.92921 -2.69953
1 -6.76216 -3.08584 -4.33476
1 -7.48207 -3.76202 -4.45956
1 -7.75333 -2.99171 -3.93064
1 -7.85939 -3.90827 -3.5232
1 -8.3015 -4.68934 -3.56785
1 -7.74167 -5.39752 -3.81255
1 -8.57975 -5.73493 -3.52246
1 -9.22084 -6.32684 -3.80388
1 -9.32057 -6.49652 -4.7388
1 -9.01956 -6.32733 -5.70421
1 -6.93158 -5.19453 9.308
1 -7.40248 -5.06655 10.1103
1 -7.1773 -4.08289 9.94971
1 -6.41999 -3.90061 9.34066
1 -6.03329 -3.97508 10.2868
1 -5.07368 -3.99821 10.164
1 -4.78526 -4.48639 9.27003
1 -5.23809 -5.21629 9.86681
1 -5.35015 -5.95608 9.26205
1 -5.67766 -6.85126 9.02499
1 -0.106414 0.126179 -4.10723
1 -0.641536 0.943526 -3.97757
1 0.188631 1.32314 -4.37899
1 -0.195631 0.732534 -4.98337
1 0.541311 0.0374131 -4.89208
1 1.08073 -0.665925 -4.44776
1 1.36663 -0.730512 -3.49221
1 2.30806 -0.634742 -3.61096
1 2.8455 -1.02342 -2.93116
1 2.61209 -1.90267 -3.19493
1 -7.87926 8.50384 3.28527
1 -8.321 8.29109 4.11396
1 -7.93588 7.38293 4.24507
1 -7.07841 7.04413 4.33138
1 -6.91984 7.92427 4.04053
1 -6.2979 7.13295 3.63404
1 -5.76194 6.79537 4.37238
1 -4.94014 6.26845 4.3374
1 -4.64057 5.50165 4.82265
1 -4.44912 4.73554 5.44209
1 -1.53465 -0.200444 -5.09468
1 -1.86578 -0.735595 -5.74821
1 -1.74962 -1.55587 -6.2232
1 -1.05916 -2.16142 -5.8478
1 -0.839121 -3.04879 -5.50843
1 -0.804729 -2.98299 -4.60117
1 -1.62259 -2.52404 -4.31371
1 -1.80505 -2.97557 -5.1178
1 -2.48326 -2.43407 -5.37278
1 -1.9602 -1.66611 -5.23167
1 1.6584 2.29982 4.76871
1 1.50596 3.04177 4.17323
1 2.41823 2.83717 4.12286
1 2.04159 2.65422 3.25878
1 2.74284 2.66011 2.59452
1 2.87028 1.84232 3.00885
1 2.50285 1.13674 2.45855
1 2.0299 2.0197 2.20936
1 1.37675 1.32691 2.38134
1 1.41978 0.58969 1.72714
1 -4.34761 -4.59056 -10.2557
1 -3.75989 -4.14526 -9.72087
1 -4.55981 -3.5437 -9.71289
1 -3.70602 -3.16777 -9.34351
1 -3.85669 -2.36688 -9.76865
1 -4.20543 -1.80208 -10.4988
1 -4.02777 -2.69898 10.4683
1 -3.22062 -3.00304 -10.32
1 -2.86772 -2.56691 -9.44616
1 -2.08307 -2.12734 -9.31961
1 -10.5281 9.47937 5.46991
1 10.318 10.2717 5.35714
1 9.93856 -10.4265 5.96741
1 9.43869 -9.6253 6.29962
1 8.95743 -10.1511 5.64824
1 9.04588 10.3678 6.15063
1 9.30308 10.459 5.20043
1 9.6097 9.95301 4.45957
1 9.39239 10.264 3.56189
1 8.63119 9.75537 3.96692
1 -1.34182 -9.17551 0.695757
1 -1.30851 -8.19315 0.670276
1 -1.15045 -8.60635 -0.249288
1 -1.75119 -7.89528 -0.453196
1 -2.57233 -8.38922 -0.710636
1 -2.93471 -9.19913 -1.09071
1 -3.48576 -8.65847 -1.65306
1 -3.57121 -8.80075 -2.55273
1 -3.37743 -8.26056 -3.37658
1 -2.79154 -9.03962 -3.68019
1 -5.59458 6.17424 -2.44598
1 -5.24936 6.83495 -3.05956
1 -4.67981 6.34984 -3.75695
1 -5.3887 6.68028 -4.27407
1 -5.60478 5.76727 -4.60375
1 -6.3551 5.21068 -4.1277
1 -7.2103 5.028 -4.64551
1 -7.90282 4.33532 -4.58746
1 -8.80372 4.5443 -4.82711
1 -9.4898 5.10796 -4.59394
1 10.4607 -7.54367 -3.61903
1 -10.1166 -6.91063 -3.90606
1 -10.5846 -7.14249 -4.72917
1 -10.662 -8.10135 -4.80862
1 9.89427 -8.67365 -4.86846
1 9.81001 -9.61712 -4.6692
1 9.64595 -10.5717 -4.86049
1 8.91461 -10.1515 -4.34369
1 7.96745 -10.1416 -4.23199
1 8.28771 10.2607 -4.10277
1 0.462237 -2.89713 8.91656
1 0.56321 -3.80166 8.62187
1 0.697957 -3.75036 9.55783
1 -0.215603 -3.70845 9.40265
1 -0.0592358 -3.77902 10.3345
1 -0.990337 -3.79714 10.4823
1 -1.38515 -4.23716 9.63319
1 -1.4163 -4.82774 10.3541
1 -0.594509 -4.72173 -10.2963
1 -0.223682 -4.35098 -9.56622
1 8.0182 -7.14209 6.83669
1 8.32233 -7.67914 6.07297
1 7.62805 -7.1138 5.665
1 8.04391 -7.66466 4.98593
1 7.93944 -7.64091 4.01335
1 7.53458 -7.83777 3.18928
1 8.36987 -7.57212 2.90184
1 8.94533 -8.32475 3.02829
1 9.18886 -9.11755 2.60287
1 8.2885 -8.8504 2.49311
1 -0.722514 -0.318902 4.16467
1 0.118099 -0.679972 3.86418
1 0.9758 -0.398866 3.43558
1 1.28349 -0.596098 2.51772
1 1.63817 -0.764202 1.66657
1 2.18396 -1.56528 1.7574
1 2.80455 -0.834564 1.30642
1 2.26092 -1.54477 0.653788
1 1.48597 -1.10928 0.320341
1 1.10644 -1.84222 0.864592
1 -6.0071 -4.36826 -2.78962
1 -6.35071 -3.65976 -2.25174
1 -5.68372 -4.09884 -1.79246
1 -5.06032 -3.77989 -1.14576
1 -4.354 -3.03603 -1.06822
1 -4.21197 -3.56938 -1.82325
1 -3.68369 -4.05167 -1.19401
1 -3.70498 -4.97607 -1.24703
1 -3.75996 -5.76044 -0.706314
1 -4.55273 -6.40398 -0.749726
1 -7.3653 -3.37262 -5.41212
1 -7.38933 -4.03461 -6.1001
1 -7.82916 -4.57071 -5.40072
1 -8.24628 -4.38407 -4.55218
1 -8.57815 -3.55183 -4.19891
1 -9.37363 -3.91751 -3.73923
1 -9.86303 -3.0807 -3.94551
1 -9.2211 -2.42086 -3.64061
1 -8.53377 -3.001 -3.25322
1 -8.64472 -3.81433 -2.76297
1 -3.92783 -3.16783 2.30982
1 -3.62896 -2.77359 3.12289
1 -4.65524 -2.51886 3.25011
1 -4.66691 -1.96597 2.4894
1 -3.76751 -1.95454 2.1112
1 -3.08574 -2.55518 2.04785
1 -2.62684 -1.95018 1.42736
1 -2.15063 -1.94003 2.18069
1 -2.93236 -1.72212 2.69754
1 -2.46947 -2.34798 3.20541
1 3.45727 8.85036 6.53564
1 4.42728 9.09344 6.44794
1 4.69572 9.35052 5.5271
1 3.68854 9.48601 5.59459
1 3.44336 10.3454 5.33713
1 3.94266 9.91552 4.56529
1 4.91944 9.86365 4.61118
1 5.64865 10.224 4.14002
1 5.23017 10.0074 3.3185
1 4.64636 9.79761 2.51986
1 9.82143 1.80849 -8.03766
1 10.343 1.58429 -7.27773
1 9.36737 1.70471 -7.11057
1 9.38729 1.62659 -6.07727
1 10.2779 2.06812 -6.15202
1 10.1295 2.58954 -5.40013
1 9.40804 2.12296 -5.05979
1 9.36359 1.22881 -5.168
1 8.46438 1.50684 -5.40951
1 8.45711 1.77935 -4.49822
1 2.37521 -5.49476 -2.93064
1 3.35117 -5.24527 -3.03137
1 4.10967 -5.54037 -3.63381
1 4.30642 -4.92244 -2.97705
1 5.23848 -5.06829 -3.11807
1 5.08177 -5.96143 -3.2805
1 5.30602 -6.82091 -3.01053
1 4.36163 -6.85899 -2.76975
1 4.47151 -6.83589 -3.7262
1 4.18914 -7.50799 -4.35948
1 -2.35308 3.23485 6.88485
1 -2.61974 3.62302 7.68897
1 -2.48363 3.34072 8.58954
1 -3.1362 3.6516 9.2874
1 -2.93661 2.69433 9.19211
1 -2.11374 2.74713 9.64043
1 -1.27258 3.03573 9.23889
1 -0.597666 3.27952 9.83925
1 -0.393532 3.21945 -10.5669
1 0.119733 3.99553 10.5913
1 5.47782 8.70649 -4.35809
1 5.47214 8.1855 -3.53827
1 4.73929 8.68612 -3.54486
1 4.46507 9.48735 -3.93949
1 4.63238 10.2421 -4.47449
1 5.28141 10.4565 -5.09827
1 6.22814 10.5861 -5.05758
1 6.36736 -10.227 -4.28612
1 6.88074 -9.98316 -3.54046
1 7.75268 -9.59023 -3.27818
1 4.75013 -6.26569 8.85913
1 4.74177 -6.55288 7.97829
1 5.68406 -6.33158 8.11694
1 5.90833 -7.23639 7.88352
1 5.499 -7.26734 8.72296
1 5.84403 -6.59085 9.24859
1 5.75711 -7.22386 9.94828
1 5.35221 -8.02957 9.56561
1 5.34883 -8.95535 9.15221
1 4.87013 -8.46112 8.53573
1 2.77038 -10.5593 0.96189
1 3.72534 -10.6375 0.933452
1 4.49214 -10.1112 0.824287
1 4.47073 -9.13481 0.979441
1 4.16355 -9.36737 0.0890235
1 3.44784 -9.97757 0.0968017
1 2.5902 -10.4858 -0.0125811
1 2.04858 10.5982 -0.741728
1 2.30532 9.67107 -0.957038
1 2.70068 8.83035 -1.26164
1 -8.62496 5.99014 -1.88833
1 -9.04168 6.83638 -1.6492
1 -8.95533 7.57749 -1.08111
1 -9.04934 8.39316 -0.653407
1 -8.59145 8.68542 0.191743
1 -7.98849 8.32448 0.822933
1 -8.05427 7.43429 0.843829
1 -7.39467 6.74218 0.672204
1 -8.29363 6.4572 0.34701
1 -9.01032 6.83245 0.832765
1 -9.80003 -5.10363 -8.51685
1 -10.1629 -4.47218 -9.09
1 10.5934 -5.19322 -9.28198
1 -9.78941 -5.31814 -9.55007
1 -9.49349 -4.55348 -10.0792
1 -8.93433 -4.22639 10.5259
1 -8.11383 -4.71024 -10.6085
1 -8.76628 -5.30706 -10.2024
1 -8.28324 -6.03664 -9.7948
1 -8.08273 -6.31763 -8.90544
1 -4.16584 -8.83988 -3.6893
1 -3.97268 -8.00012 -4.15888
1 -4.19276 -7.45321 -3.41512
1 -3.35895 -7.19525 -3.09375
1 -3.92895 -7.62696 -2.45449
1 -4.55119 -8.32919 -2.0402
1 -5.06607 -9.05451 -2.48283
1 -4.52261 -9.89024 -2.62982
1 -4.47917 10.4537 -2.72338
1 -3.78268 10.5511 -2.15495
1 7.73468 1.71702 -9.74747
1 7.37644 1.12218 -9.15319
1 7.30173 1.37523 -8.25394
1 6.6334 2.05659 -8.05527
1 7.18663 2.73336 -8.30941
1 7.26232 2.48254 -9.27562
1 6.72397 2.55148 -10.1248
1 6.36818 2.09323 10.434
1 7.12291 1.63461 -10.5485
1 7.77642 1.83921 10.1487
1 7.78788 -10.3025 -1.97166
1 7.30887 -10.6589 -1.3101
1 7.24263 -10.3044 -0.373252
1 6.6543 10.3871 -0.0500949
1 5.89452 9.99594 0.506811
1 5.13269 9.55387 0.0830875
1 4.87014 9.87112 -0.79046
1 4.3079 -10.6416 -0.678329
1 4.01938 10.1245 0.0541272
1 4.32831 9.54488 0.731791
1 3.20409 2.43645 9.11138
1 2.68266 2.15625 8.41336
1 2.28672 2.93226 8.74098
1 2.77777 3.31902 9.4969
1 2.88061 4.12863 10.0413
1 3.79382 3.70469 9.97082
1 3.95488 2.77192 9.67888
1 3.91888 2.25965 10.4475
1 4.09058 1.36491 -10.6461
1 3.75676 0.928351 -9.86196
1 9.81237 2.58054 -2.72654
1 9.31088 3.34975 -3.09793
1 9.01436 3.4811 -2.24466
1 8.34466 3.12801 -1.5996
1 7.77691 3.42211 -2.32748
1 7.12414 4.07526 -2.00587
1 7.58969 3.67408 -1.23335
1 7.20219 3.27701 -0.491557
1 6.57868 3.12561 -1.17485
1 6.90441 2.28534 -0.735188
1 -2.20471 -1.53165 -10.3885
1 -1.95885 -2.40229 -10.6085
1 -1.89663 -3.24746 -10.1519
1 -0.996096 -3.03399 -10.2329
1 -0.11501 -3.26488 -9.88785
1 -0.25489 -2.37944 -10.2158
1 0.670381 -2.32349 -10.0612
1 0.928091 -3.13429 -9.51663
1 1.39702 -3.18514 -8.7199
1 0.747933 -2.57309 -8.33493
1 -6.55696 10.5224 -5.68976
1 -7.2997 -10.3045 -5.36228
1 -8.08595 10.5319 -5.50242
1 -7.81381 10.506 -6.4035
1 -8.50181 -10.6368 -7.06418
1 -9.22589 -10.3012 -7.52264
1 -9.22383 -9.47086 -7.95962
1 -9.04405 -10.0083 -8.70342
1 -8.60582 10.459 -8.31235
1 -8.09514 -10.0473 -8.25154
1 2.83387 0.96813 4.41549
1 2.07617 1.10702 3.86132
1 2.78271 0.528748 3.41915
1 3.38156 -0.197874 3.66833
1 3.23349 -0.923535 3.00358
1 2.3151 -1.07062 2.68218
1 1.5961 -1.66219 2.67678
1 1.79114 -1.57282 3.5769
1 2.35806 -1.30142 4.28005
1 3.32549 -1.15088 4.11111
1 -0.666181 2.61571 3.56544
1 -0.0961698 1.97258 4.01718
1 -0.671876 2.41769 4.69968
1 -0.363783 3.20178 5.12894
1 -0.0747089 2.39042 5.56743
1 0.680353 2.97812 5.45797
1 1.52597 3.27255 5.89912
1 2.16787 3.5102 6.5796
1 1.76134 2.58768 6.67547
1 0.845211 2.56659 6.50654
1 5.39757 7.32431 9.56826
1 4.58193 7.25927 10.0194
1 4.36913 7.03409 -10.4305
1 5.08214 7.70612 -10.3546
1 5.52001 6.88942 -10.307
1 6.49169 6.75909 -10.3773
1 6.31682 6.42356 -9.4779
1 5.36408 6.47194 -9.38213
1 4.86037 7.35951 -9.25433
1 4.25577 8.02832 -9.00235
1 -8.81534 -2.06646 -7.59987
1 -8.09218 -2.66898 -7.5624
1 -8.95868 -3.08028 -7.35619
1 -9.57277 -3.25328 -6.65282
1 -9.95632 -3.14206 -7.54764
1 10.5854 -3.54667 -7.9568
1 9.97219 -3.75513 -7.24916
1 -10.5082 -4.12546 -7.18968
1 10.5746 -4.53268 -8.02639
1 9.66656 -4.56607 -7.76239
1 -7.19304 10.2058 -1.97472
1 -6.29913 9.90313 -1.8855
1 -5.74307 10.356 -1.24505
1 -5.95994 -10.2558 -0.681298
1 -6.45152 -10.2115 -1.50541
1 -6.75327 10.3684 -0.970348
1 -6.88029 9.41607 -0.758373
1 -7.63581 9.60525 -1.25622
1 -8.05629 9.46654 -2.08698
1 -8.21354 9.59654 -3.00199
1 -9.67636 5.01425 -2.33738
1 -10.5523 5.03156 -1.8597
1 10.0629 5.25448 -2.51517
1 9.284 5.81683 -2.36336
1 8.51217 6.32505 -2.35965
1 8.26348 5.56127 -1.88861
1 7.93948 6.22881 -1.24291
1 8.65858 6.65194 -0.689511
1 8.48521 5.93688 -0.1163
1 8.63825 6.68027 0.465506
1 -9.0632 8.71132 -4.53869
1 -9.74776 8.48854 -5.12834
1 -10.3871 8.06946 -5.76165
1 10.4498 8.83675 -6.25218
1 -10.2799 9.24011 -5.61048
1 -9.8857 9.83052 -5.04149
1 -9.12622 9.46901 -5.38865
1 -9.03694 8.8454 -6.05456
1 -9.78125 8.55696 -6.57986
1 -9.35028 8.60389 -7.43122
1 9.44458 -5.01895 1.32878
1 8.8622 -4.71096 2.00564
1 8.86505 -3.79144 1.7143
1 9.16827 -3.25974 2.47651
1 8.71286 -2.67292 3.11121
1 8.49549 -2.92807 3.98663
1 9.44148 -2.83943 3.81238
1 9.25577 -2.83143 4.77238
1 8.83262 -2.85221 5.73214
1 8.19608 -2.32042 6.11522
1 -1.04214 3.11086 0.855262
1 -0.767031 2.28111 0.561652
1 -0.0971189 2.25744 1.18709
1 0.480619 2.72779 0.561124
1 1.31817 3.05216 1.07772
1 1.87335 3.84521 1.32121
1 2.76776 4.17277 1.21897
1 2.48239 3.75023 0.433915
1 2.70489 2.95373 -0.0679365
1 2.73475 2.03743 0.212105
1 -5.62397 9.86329 4.75703
1 -6.06011 9.74578 5.57669
1 -6.98143 9.5605 5.52891
1 -6.63321 9.26379 6.35867
1 -6.74488 9.01931 7.30216
1 -7.32297 8.43486 6.75583
1 -7.8359 7.78736 6.27577
1 -8.71012 7.50594 5.99211
1 -8.61736 7.55712 5.03241
1 -7.87475 7.02232 5.30627
1 1.93508 -6.89787 -9.55776
1 1.99278 -7.01554 -8.64385
1 2.36212 -6.32974 -8.06862
1 2.66259 -6.40339 -9.03687
1 3.08014 -6.79907 -9.78751
1 3.1493 -6.58226 10.6257
1 2.93638 -7.49492 -10.5922
1 2.00692 -7.02862 10.5845
1 1.54121 -6.24238 -10.3201
1 1.8812 -5.84792 -9.56337
1 -3.02262 -9.97876 10.1366
1 -3.87838 -10.3775 10.2255
1 -4.46089 -9.66362 9.98499
1 -4.14041 -9.66538 -10.4218
1 -4.79911 -9.2854 -9.71237
1 -5.61534 -8.795 -9.86816
1 -5.02204 -8.06422 -9.99212
1 -5.92716 -7.89263 -10.3286
1 -6.59122 -7.61708 10.3438
1 -6.13836 -7.71763 9.50885
1 0.783656 10.6261 8.45569
1 1.38828 -9.87053 8.81808
1 2.1914 -9.27903 8.88624
1 2.83189 -8.91942 9.49102
1 3.50162 -8.62613 10.0572
1 4.12972 -9.28951 10.0543
1 4.22931 -8.70399 9.35554
1 3.64222 -9.09152 8.67073
1 4.46497 -9.58514 8.63534
1 4.01238 -10.4837 8.70678
1 0.151915 6.69532 0.403919
1 -0.362707 5.9899 0.0512832
1 0.101271 6.00151 -0.759566
1 -0.302942 6.91822 -0.65427
1 -1.0406 6.68583 -1.17659
1 -1.34614 5.87786 -1.64132
1 -2.08487 5.24691 -1.58201
1 -2.55119 5.94144 -1.10149
1 -2.18539 6.61393 -1.67097
1 -1.9375 6.74743 -0.697944
1 -0.752659 6.51611 0.95246
1 -0.0373048 6.84327 1.43609
1 -0.735536 7.51601 1.35412
1 -0.783389 8.27018 2.11687
1 -0.87905 9.20255 2.39527
1 -1.61345 9.47307 2.89598
1 -1.07558 8.82138 3.51337
1 -1.00091 7.83234 3.41077
1 -0.339617 7.41309 2.84451
1 -0.477723 6.66408 3.46501
1 -8.83603 -9.0114 8.94947
1 -9.06563 -8.67844 9.74239
1 -8.59701 -9.17721 10.4306
1 -8.27669 -8.37445 -10.4802
1 -8.80329 -8.1053 -9.69369
1 -8.58974 -7.29093 -10.2155
1 -9.46161 -7.11606 -10.3271
1 -9.14598 -6.41487 10.5079
1 -9.79245 -6.14847 -10.1292
1 -9.19656 -6.33391 -9.34094
1 -5.84209 -4.80353 -4.88902
1 -6.51124 -4.41274 -5.45014
1 -6.91522 -5.26367 -5.41608
1 -6.93051 -4.85072 -4.54274
1 -6.80378 -4.52362 -3.60732
1 -7.05988 -4.05445 -2.81214
1 -6.79209 -3.14332 -3.02954
1 -6.96516 -2.25278 -3.2698
1 -6.03306 -2.39509 -3.46524
1 -5.48898 -2.47128 -4.20013
1 8.48558 4.23487 -0.922655
1 8.10994 4.58794 -1.68514
1 8.32369 4.2758 -2.58274
1 7.60396 4.77481 -2.88758
1 7.15149 5.11567 -2.0465
1 7.34084 6.051 -2.18728
1 7.43516 6.82037 -2.75822
1 6.98404 7.46988 -3.43443
1 7.53642 7.0718 -4.07994
1 8.05899 7.81733 -4.4086
1 9.08568 3.38369 0.598959
1 8.7805 2.57402 0.925445
1 8.90335 1.82973 1.51359
1 8.90149 2.11234 2.45899
1 9.371 2.62597 3.13963
1 9.41233 3.54211 3.34396
1 9.82043 3.34356 2.48753
1 10.2535 2.45903 2.4449
1 10.6368 2.82517 1.63689
1 10.2503 3.66168 1.34082
1 6.27662 2.93862 -7.42535
1 6.82468 2.40135 -6.75892
1 6.92578 3.23975 -6.30561
1 7.06209 4.16066 -6.50993
1 7.81656 4.14894 -5.92779
1 8.73595 4.25266 -5.92007
1 8.87478 5.17603 -5.82766
1 8.00771 5.37989 -5.54262
1 7.61927 4.81942 -4.91653
1 6.99318 4.69929 -5.61483
1 -3.82775 -9.5554 -8.34851
1 -2.9826 -9.76126 -8.73802
1 -3.65813 -9.5416 -9.37034
1 -4.07412 -10.3654 -9.44452
1 -2.99272 -10.6145 -9.5636
1 -2.21011 -10.3532 -9.01646
1 -1.28547 -10.3069 -9.34366
1 -1.23541 -9.40296 -9.2163
1 -1.31853 -9.62867 -10.1192
1 -1.31941 -8.66255 -10.109
1 -2.12116 -6.00367 -0.949011
1 -1.91155 -6.97625 -0.875722
1 -2.2126 -7.64259 -1.4902
1 -1.77398 -7.61036 -2.31507
1 -2.43333 -6.92409 -2.09512
1 -2.20286 -6.72005 -3.01386
1 -1.39452 -6.89682 -3.53248
1 -1.11298 -6.58997 -4.40216
1 -1.52282 -6.34864 -5.38547
1 -1.87977 -5.51081 -5.50318
1 -5.69349 -10.6165 7.00215
1 -6.13099 -9.84827 7.45487
1 -5.76269 -9.44594 6.65028
1 -6.31431 -9.74856 5.94795
1 -6.05311 -8.95785 5.41137
1 -7.0109 -8.51711 5.45618
1 -7.97382 -8.47109 5.51574
1 -7.70597 -8.881 6.31955
1 -8.13175 -9.25054 7.1259
1 -7.79862 -9.89956 6.39252
1 -7.93491 -0.537321 -6.14341
1 -8.71319 0.0212663 -6.34228
1 -9.53242 0.496148 -6.50962
1 -9.61969 0.0116629 -7.30168
1 -9.26967 -0.697248 -7.80157
1 -8.6079 -0.549247 -7.11628
1 -8.04334 -1.44058 -7.03597
1 -7.87499 -2.11995 -6.30214
1 -7.04863 -2.40751 -5.94494
1 -6.50522 -3.10615 -6.31168
1 -10.2634 -7.93083 8.6014
1 10.5427 -8.59989 8.05082
1 9.62252 -8.57917 8.1047
1 9.61299 -7.84025 8.71759
1 10.2994 -8.11627 9.37855
1 10.1686 -8.85884 9.9612
1 10.4391 -9.60523 10.4816
1 10.5159 -10.6136 10.5585
1 -10.0556 -10.2648 10.1212
1 -9.28545 -9.88331 9.82939
1 6.12294 0.504829 9.81616
1 7.01159 0.660222 10.2467
1 7.91207 0.51057 10.6148
1 8.76776 0.734207 10.4032
1 8.8532 1.35468 9.69913
1 9.23729 1.80767 10.4693
1 9.79785 1.79217 9.65419
1 9.98302 2.60376 10.1866
1 9.74397 3.08897 -10.3485
1 10.6329 2.8777 -10.3549
1 5.73431 -10.5785 1.13514
1 4.90948 10.3746 0.821842
1 5.09885 10.5373 -0.0833505
1 4.88237 -9.91586 -0.385651
1 5.59663 -10.3589 -0.834826
1 6.18219 -10.6361 -1.50737
1 5.75826 -9.8065 -1.83229
1 4.82848 -9.88508 -1.49846
1 4.9455 10.4835 -1.70248
1 4.02336 10.2144 -1.69544
1 -9.74181 0.979923 -5.65108
1 -10.6553 1.2743 -5.68312
1 -10.0848 1.6131 -6.41112
1 -10.0709 2.16929 -5.67846
1 -10.2787 2.0887 -4.7337
1 -9.84267 1.71622 -3.93672
1 -9.23721 1.85168 -4.68837
1 -9.40881 2.74959 -4.81147
1 -8.44227 2.79515 -4.82913
1 -8.74901 3.46675 -5.44269
1 1.74497 -7.38835 4.39615
1 2.57101 -7.2228 3.93575
1 3.38068 -6.87899 3.53469
1 3.98513 -7.499 3.24927
1 3.87136 -6.80646 2.50712
1 4.42824 -7.49393 2.12662
1 3.76469 -8.17878 1.8071
1 3.82085 -7.36471 1.24894
1 4.76 -7.27081 1.17803
1 5.46912 -7.4011 0.397694
1 -1.95845 -7.02294 -10.3903
1 -1.11941 -7.25756 -10.0722
1 -0.989578 -6.61466 -9.32246
1 -1.89043 -6.29626 -9.46406
1 -2.47664 -7.09128 -9.45874
1 -2.0722 -7.88518 -9.04214
1 -2.20026 -7.98221 -9.96373
1 -3.02173 -8.01956 -10.6239
1 -3.2461 -8.06659 9.79675
1 -4.09818 -8.47504 10.0106
1 9.25655 10.4821 9.08929
1 9.56324 10.5151 9.97925
1 9.72337 -9.8671 9.60962
1 10.2203 -10.554 9.14243
1 10.1645 9.82572 8.76425
1 10.5978 10.0078 9.6031
1 10.4482 9.00152 9.72097
1 -10.0787 9.05192 10.2053
1 -10.118 9.9954 10.4386
1 10.378 9.70434 -10.4056
1 5.78603 2.78865 3.03707
1 5.18751 2.93068 2.29743
1 4.43752 2.74601 1.70834
1 4.06741 2.04767 1.24154
1 3.31907 1.4165 0.957969
1 2.61102 0.926184 0.5256
1 2.16975 1.31872 1.33291
1 1.76373 1.22106 0.420848
1 1.68785 0.307387 0.18842
1 2.44568 -0.166636 0.505869
1 -0.242736 6.16496 -8.10927
1 -0.847779 6.93912 -7.90732
1 -0.0246242 7.16927 -8.34367
1 -0.284602 7.89322 -7.79167
1 0.447979 7.88026 -7.20786
1 0.926008 8.63141 -6.73161
1 0.436055 9.09288 -7.42447
1 -0.0981308 8.70355 -6.72363
1 -0.399208 9.55557 -6.97351
1 -0.575654 10.1251 -6.27515
1 -8.85857 -10.1692 -3.82175
1 -9.31523 10.3768 -4.07156
1 -9.59793 10.3809 -3.19545
1 -10.5072 10.0803 -3.28688
1 -10.1851 9.2347 -3.02744
1 -10.0476 9.88117 -2.32183
1 -9.601 9.8243 -1.50936
1 -10.1401 10.5514 -1.29849
1 -9.45955 -10.5384 -1.92677
1 -10.0451 -9.78119 -1.62364
1 -1.56534 -6.56264 5.69036
1 -2.31331 -7.11519 5.63688
1 -1.80646 -6.9957 4.82469
1 -1.39967 -7.76637 4.43577
1 -1.8805 -8.20939 5.09942
1 -1.3404 -7.68564 5.78933
1 -0.506367 -7.48136 6.31904
1 -0.507593 -6.5393 5.87033
1 -0.776909 -6.9056 4.98489
1 -0.530044 -7.80688 5.29981
1 1.4415 4.11958 -10.3916
1 1.97604 3.68122 10.2417
1 2.04227 4.75549 10.2985
1 2.47678 4.9749 -10.3
1 2.86479 5.48785 10.2174
1 3.67381 5.71469 9.79083
1 3.63442 6.65089 10.0144
1 2.74692 7.18741 9.9232
1 3.51187 7.74226 9.73346
1 3.51564 7.45489 10.5623
1 -5.81153 -8.66999 1.08923
1 -6.42475 -8.14488 0.623559
1 -6.92561 -8.11324 -0.128616
1 -7.35873 -7.54939 -0.647928
1 -8.03664 -6.85151 -0.514874
1 -8.16043 -6.63433 -1.5074
1 -7.94895 -7.58039 -1.73301
1 -8.10731 -7.77565 -2.67078
1 -7.73004 -8.63188 -2.92387
1 -8.52662 -9.22026 -2.72776
1 -8.11237 6.66477 -8.1847
1 -7.71884 5.80845 -7.83873
1 -7.64206 5.77525 -8.76862
1 -8.59616 5.71153 -8.79479
1 -9.2428 5.31824 -9.51734
1 -8.98405 4.53583 -10.0372
1 -9.1718 3.56918 -10.1145
1 -8.62057 3.45031 10.4826
1 -8.92931 4.34251 10.0721
1 -9.34355 5.12623 9.71507
1 8.90673 -8.42206 -8.18222
1 9.78761 -8.80577 -8.10732
1 9.86942 -8.06183 -8.63148
1 9.58211 -7.43027 -7.98185
1 9.95982 -6.79095 -7.41692
1 -10.4441 -6.47468 -7.43589
1 10.6449 -5.58758 -7.24939
1 10.0478 -4.92482 -6.83816
1 9.69152 -5.68509 -6.48825
1 9.59776 -5.73452 -7.43333
1 4.83933 -6.49333 2.2345
1 5.39355 -5.79845 2.53659
1 5.72175 -4.90001 2.46971
1 5.28271 -4.41686 1.82339
1 5.0283 -3.69473 2.39713
1 4.68125 -2.97207 1.84894
1 5.53787 -3.16724 1.58351
1 6.38687 -3.6131 1.39799
1 6.89814 -4.16242 1.97176
1 7.7699 -4.26984 1.62591
1 2.56499 -3.47671 7.9177
1 2.65175 -2.95957 7.1229
1 3.0691 -2.16829 7.28589
1 2.35456 -2.47507 7.99982
1 2.48744 -2.78725 8.9704
1 1.61311 -3.00795 8.62057
1 1.56715 -3.95897 8.3049
1 2.31711 -4.44774 8.04359
1 2.83315 -4.38672 8.87446
1 2.26655 -4.93746 9.43194
1 9.76317 -9.64357 -7.40913
1 9.49805 -9.17273 -6.64693
1 9.73506 -8.45142 -6.01895
1 10.3972 -7.80305 -6.00873
1 -10.4715 -8.636 -5.8159
1 -9.71065 -8.26003 -5.43705
1 -9.03918 -8.52368 -4.85777
1 -9.36882 -7.78031 -4.2322
1 -10.0862 -8.3789 -3.95075
1 10.5875 -9.12785 -4.06181
1 2.91305 2.22727 -5.80492
1 2.97878 2.62051 -4.93974
1 3.28994 3.10055 -4.13703
1 2.38814 3.23054 -4.22337
1 1.60027 3.41954 -4.7543
1 0.858592 4.03267 -4.66588
1 0.589037 3.39298 -4.04819
1 0.655486 2.57035 -3.4773
1 1.49489 2.93258 -3.8009
1 1.71274 2.2645 -3.12859
1 1.44267 -1.29821 6.63889
1 1.23126 -2.11723 6.16495
1 0.51515 -2.12538 5.61669
1 0.353997 -1.30069 5.0742
1 -0.397757 -1.43188 5.71013
1 -0.76691 -1.10122 4.77565
1 -1.2719 -0.533547 5.38224
1 -2.0004 -0.212148 5.83348
1 -1.48882 0.452872 6.29246
1 -1.25498 1.31982 5.86534
1 1.51497 9.74186 -4.00745
1 2.22641 10.3396 -3.95918
1 3.10079 10.1584 -3.64156
1 2.4321 9.46154 -3.42205
1 3.00963 9.15257 -4.08313
1 2.18467 9.06786 -4.54706
1 2.44018 8.6581 -5.43767
1 2.69936 7.83344 -5.14115
1 2.22139 7.09537 -4.71257
1 2.5894 7.34148 -3.85462
1 2.46061 4.45155 -1.6412
1 3.35903 4.76422 -1.67908
1 3.92269 4.14677 -1.11966
1 4.26585 3.28075 -1.03826
1 4.70336 2.39207 -1.24105
1 5.01452 2.27399 -0.36597
1 5.12657 3.18442 -0.0406138
1 5.97651 2.94718 0.360382
1 6.26715 3.741 -0.24553
1 5.57517 4.1497 0.292496
1 8.04942 3.01464 -5.98436
1 8.30153 2.57043 -5.17202
1 9.07738 3.15423 -5.4205
1 8.81856 3.31721 -4.52534
1 8.09626 3.89256 -4.74157
1 7.46483 3.15743 -4.82032
1 6.91483 2.77784 -4.09038
1 6.97279 3.69304 -4.07184
1 7.88083 3.38958 -3.87987
1 8.30079 2.57333 -3.71831
1 0.416259 -1.37747 10.2404
1 0.367635 -1.00419 9.31845
1 0.794128 -0.377688 8.66354
1 0.239158 0.026632 9.30478
1 -0.432257 0.644454 8.99166
1 0.50584 0.992105 9.20051
1 0.847208 1.80867 8.83765
1 1.72248 2.10023 8.53843
1 1.05709 1.71455 7.81287
1 0.790971 1.16151 7.0763
1 -6.22332 6.03841 1.31174
1 -5.91992 6.86492 0.932493
1 -5.83542 7.78975 0.664979
1 -5.58683 8.72804 0.833308
1 -5.55454 8.57916 1.72718
1 -6.42817 8.8787 2.05097
1 -5.83439 9.16232 2.78077
1 -5.86807 9.0158 3.7494
1 -5.94882 9.99109 3.4195
1 -5.27371 10.1694 2.74075
1 -7.36903 3.12268 1.25849
1 -7.88047 3.10917 2.05782
1 -7.69234 2.97279 2.94198
1 -7.36538 2.11092 2.90256
1 -6.71794 1.51138 3.27564
1 -6.43594 1.87199 4.09453
1 -7.37795 2.12811 4.08318
1 -7.39855 3.05911 4.32169
1 -7.57496 3.99749 4.21647
1 -8.19653 3.64126 3.52152
1 4.92637 3.85052 -6.48535
1 4.75137 2.93084 -6.63036
1 5.3616 2.66801 -5.94388
1 5.1357 1.75471 -5.88594
1 4.65967 1.84596 -6.73892
1 3.86509 2.36353 -6.60032
1 3.40463 1.56193 -6.47485
1 3.35541 1.35611 -5.56928
1 4.30909 1.26415 -5.6863
1 4.66094 0.457931 -5.276
1 -6.84961 -5.15569 -2.76156
1 -6.55965 -5.59636 -3.53854
1 -7.218 -6.27933 -3.40398
1 -7.93364 -6.8599 -3.21517
1 -8.66348 -6.66573 -2.67342
1 -8.89708 -7.21183 -3.4282
1 -9.06563 -7.67523 -2.58648
1 -9.83163 -8.17873 -2.10248
1 -10.6502 -8.35632 -1.58445
1 10.2095 -9.19818 -1.60326
1 -5.03422 -10.0601 4.37233
1 -5.28166 -10.5034 3.52696
1 -4.68224 -9.7725 3.40564
1 -3.98455 -9.15329 3.74692
1 -3.33621 -9.48553 3.09214
1 -3.72257 -9.81356 2.24167
1 -4.00368 -9.6925 1.33666
1 -3.6367 -9.59978 0.464344
1 -2.75063 -9.93395 0.771007
1 -2.42257 -9.18444 0.346457
1 -0.25962 -9.38992 9.75798
1 0.37946 -8.66754 9.99163
1 -0.174025 -8.16853 10.5915
1 -0.228244 -8.91454 -10.1717
1 0.76238 -8.78752 -10.3803
1 1.41269 -9.41148 -10.1914
1 1.51816 -8.66984 -9.6612
1 2.17357 -8.01638 -9.93711
1 2.35165 -8.3911 10.592
1 2.30455 -9.306 10.2964
1 -1.32021 8.4993 -4.61168
1 -1.02559 8.40846 -5.46812
1 -1.34897 9.30646 -5.45849
1 -1.19943 9.73655 -4.56606
1 -1.45273 9.47241 -3.66811
1 -1.39109 8.5546 -3.24895
1 -2.17044 8.42444 -3.80034
1 -2.43027 8.31434 -4.71714
1 -3.16106 8.71925 -5.16795
1 -3.67977 7.96516 -5.04354