8000
Atoms. Timestep: 10000000
1 -7.76556 1.9186 7.64252
1 -8.00579 2.8179 7.92229
1 -8.43312 2.16951 8.4859
1 -7.5022 1.93695 8.5925
1 -7.0368 2.76753 8.63861
1 -6.49832 2.36396 7.9171
1 -6.52682 1.64619 8.53127
1 -6.61777 0.816284 9.0795
1 -6.46384 1.44347 9.79542
1 -6.2579 2.33975 9.43468
1 -4.73638 9.48075 6.79496
1 -4.56133 10.2456 7.33637
1 -4.68138 10.5891 6.45602
1 -4.83507 -9.85877 6.91449
1 -5.21411 -10.3775 7.74053
1 -6.04763 10.6343 8.24324
1 -6.42171 10.4801 7.33711
1 -5.69378 -10.474 6.75886
1 -5.69728 9.94116 6.39147
1 -5.96627 10.3086 5.5433
1 -0.138393 -9.3443 5.7895
1 -0.890423 -8.81687 6.08739
1 -0.81844 -9.28054 6.90517
1 -1.08527 -10.1082 6.57944
1 -1.31661 -10.0284 7.57121
1 -0.595918 -10.0211 8.28178
1 -0.625511 10.3355 8.61107
1 -0.521211 -10.3434 9.34375
1 -0.284478 -9.48761 9.19873
1 0.466248 -9.61999 9.88786
1 -6.40259 0.382476 -6.15361
1 -6.37525 -0.0236311 -6.99314
1 -7.36645 -0.130519 -6.71619
1 -6.69342 -0.707361 -6.23332
1 -6.87063 -0.995966 -7.07688
1 -7.72994 -0.959949 -7.34974
1 -8.18454 -0.175289 -7.66586
1 -8.13494 -0.655777 -8.49939
1 -9.09736 -0.406422 -8.22497
1 -9.31799 -0.181055 -9.18965
1 0.46672 -7.69783 8.4151
1 0.888675 -7.94457 9.26657
1 0.427016 -7.89362 10.1355
1 0.456553 -7.00681 9.73701
1 -0.204621 -7.15757 10.3744
1 -0.811932 -6.69518 -10.3389
1 -1.62029 -6.359 10.4868
1 -2.32417 -5.69552 10.3302
1 -2.37598 -5.89356 9.37228
1 -3.10047 -5.32749 8.90428
1 3.44061 -2.15383 -4.6444
1 3.88967 -1.54418 -5.1964
1 4.85729 -1.60166 -5.23478
1 5.17853 -2.38466 -4.86164
1 4.62261 -2.18026 -4.15061
1 5.27099 -1.84567 -3.50026
1 4.79926 -2.64303 -3.09541
1 4.10113 -3.19026 -3.39817
1 4.74089 -3.9217 -3.42355
1 4.5012 -4.81241 -3.10359
1 4.4231 -6.36739 -2.38632
1 5.09306 -6.01001 -2.97776
1 5.52171 -6.56179 -2.30551
1 6.51743 -6.68553 -2.32803
1 6.65962 -7.61578 -1.96411
1 7.42713 -7.60011 -1.45338
1 7.16925 -6.71224 -1.41454
1 7.52994 -7.05374 -2.26524
1 8.33358 -7.07029 -1.72887
1 9.16875 -6.58301 -1.89433
1 7.76485 4.45974 6.0288
1 7.88531 5.13342 6.67246
1 7.16971 5.60993 6.2591
1 8.00893 6.13594 6.27531
1 8.88911 5.83383 6.62805
1 8.84938 6.04133 5.69777
1 9.6177 6.20804 5.23061
1 9.78641 5.34474 4.93916
1 9.25451 5.73031 4.26146
1 9.0876 6.5731 3.98901
1 -4.73308 2.97603 -9.95151
1 -4.02731 3.17004 -10.5321
1 -3.49998 3.8503 10.4442
1 -2.60589 4.04878 10.1018
1 -2.3502 3.68826 -10.3621
1 -3.11788 3.01261 -10.2336
1 -2.27994 2.4959 -10.267
1 -2.61045 1.56533 -10.1143
1 -1.6662 1.22665 -10.2086
1 -1.66552 1.08395 10.1767
1 -5.95507 0.945405 3.46057
1 -5.19201 1.55875 3.56358
1 -4.9274 0.662252 3.91129
1 -4.07702 0.994449 3.96454
1 -4.35807 0.967391 3.04549
1 -3.38651 1.04301 3.06537
1 -2.48951 0.660603 3.11023
1 -2.58488 1.65935 3.33346
1 -2.7335 1.02835 4.0327
1 -2.05698 0.793958 4.70811
1 5.75195 -2.56014 -6.47164
1 6.04721 -2.66447 -5.47528
1 5.68474 -3.44356 -5.98042
1 5.28319 -3.40638 -5.13369
1 4.55089 -3.29013 -4.45723
1 4.61625 -4.23504 -4.38897
1 5.28241 -4.84923 -4.28396
1 5.69417 -4.32063 -4.97377
1 6.4725 -3.77061 -5.33084
1 6.9083 -3.07752 -4.76525
1 -8.75148 5.30099 8.05059
1 -8.6308 6.22543 8.32788
1 -9.45637 6.0403 8.74203
1 -9.49689 6.57689 9.6178
1 -9.37647 5.5709 9.57868
1 -9.24287 5.03001 10.414
1 -9.5335 5.83365 -10.5931
1 -9.43622 6.83858 -10.6363
1 -8.56418 6.88514 10.291
1 -8.16986 7.14546 9.38199
1 -1.67223 6.19291 -3.17082
1 -2.61117 6.19012 -3.34641
1 -3.32659 6.73509 -3.0499
1 -2.99775 7.24093 -2.29169
1 -2.60041 7.4312 -3.17492
1 -3.06577 8.14107 -2.75788
1 -3.80899 8.73572 -2.56888
1 -4.74636 9.02651 -2.83005
1 -4.55257 8.89565 -3.74594
1 -5.00948 8.48031 -4.51236
1 -9.10174 -10.2918 -4.57921
1 -9.19079 -9.65029 -3.84465
1 -9.10516 -9.88691 -2.86443
1 -9.51108 -9.00728 -2.88202
1 -10.1687 -9.19885 -2.24348
1 10.3496 -9.73782 -2.23486
1 10.0943 -10.3298 -2.90369
1 9.72694 -10.4778 -3.79401
1 10.2966 -9.76471 -3.90398
1 -10.1852 -9.97907 -4.41843
1 6.14415 -9.24985 -2.91339
1 6.98068 -9.72628 -2.71712
1 7.90673 -9.91855 -2.93823
1 7.7053 -10.4578 -3.65461
1 7.21821 -9.76904 -4.0631
1 8.13884 -9.52658 -4.22301
1 9.06312 -9.60414 -3.86467
1 9.04751 -9.88072 -2.97214
1 8.56262 -9.13272 -2.60247
1 8.04389 -8.86908 -3.39202
1 10.4968 -7.53803 -5.42919
1 -10.4182 -7.27928 -4.53225
1 -10.0297 -6.90292 -3.83322
1 -9.19167 -7.47732 -3.67293
1 -9.97979 -7.93346 -3.68271
1 -10.1688 -8.82429 -3.98336
1 -10.514 -8.63938 -3.11513
1 9.81497 -8.57847 -3.30398
1 9.3297 -8.39601 -4.04113
1 8.35443 -8.05717 -4.02974
1 -9.99146 4.40809 7.75754
1 10.4192 4.23941 7.55488
1 10.5658 3.77812 8.32188
1 -10.5183 3.30095 9.16053
1 10.3549 3.92801 9.73242
1 9.49596 3.79334 10.1046
1 9.41871 4.15225 9.23484
1 9.47781 3.36567 8.68853
1 10.1198 2.61157 8.70365
1 10.1791 2.86456 7.79982
1 3.5498 8.57494 -7.00716
1 4.48343 8.80439 -7.40795
1 4.51551 9.44148 -6.62714
1 4.25972 10.1161 -7.2015
1 4.25398 10.056 -8.18765
1 4.50215 9.8461 -9.04444
1 5.41942 9.80909 -8.85973
1 5.29685 -10.5752 -9.16056
1 5.46503 10.2 -9.94064
1 4.47507 10.2126 -9.99761
1 8.4929 3.29743 -0.201863
1 9.27881 2.97704 -0.676236
1 9.55799 3.70593 -0.192919
1 10.4278 3.33749 0.0304194
1 -10.0588 2.83667 0.29746
1 -10.316 3.04488 1.20637
1 -9.65964 3.70218 1.51672
1 -8.85639 3.21402 1.68044
1 -8.66854 3.77776 0.917541
1 -7.80083 3.69462 1.37878
1 7.04001 -6.70805 10.3399
1 6.88852 -5.83944 -10.5529
1 7.72784 -5.75221 10.3397
1 7.70688 -4.8009 10.1948
1 7.19391 -3.94949 10.4306
1 7.89567 -3.84766 9.72973
1 8.01063 -2.88792 9.86196
1 8.8471 -2.66761 9.49304
1 8.81651 -3.62575 9.44364
1 9.5181 -3.79964 10.0551
1 9.68508 -3.4603 4.16692
1 9.50955 -2.78594 3.48816
1 9.28248 -2.15753 4.2407
1 8.64437 -2.88762 4.34993
1 7.71287 -3.23426 4.28225
1 7.55536 -3.51405 3.41727
1 6.92623 -3.63325 2.61762
1 6.39542 -4.32355 2.20809
1 6.57888 -3.70891 1.46444
1 6.2285 -4.06781 0.63101
1 1.25889 -7.56766 5.62713
1 1.32858 -6.67069 5.94399
1 1.98884 -7.25737 6.31421
1 2.85124 -7.67593 6.02673
1 3.35773 -8.0872 6.7379
1 3.6696 -7.24309 7.05201
1 3.08744 -7.25255 7.85503
1 3.16102 -7.72719 8.678
1 3.25915 -6.92494 9.1849
1 3.94967 -6.76536 9.87589
1 10.2629 -9.55367 8.24128
1 10.2339 -8.6558 8.61055
1 10.0714 -7.85119 8.23968
1 9.24327 -8.35532 8.36874
1 9.38642 -9.0395 9.06944
1 9.27155 -8.15382 9.44561
1 8.57404 -7.49537 9.05708
1 8.22872 -7.70734 8.18534
1 7.57071 -7.59406 8.83667
1 6.884 -7.78292 9.49075
1 -4.88533 -4.91739 6.97656
1 -5.47761 -4.65207 6.30382
1 -4.75556 -4.53787 5.70035
1 -5.18163 -3.8995 4.95096
1 -5.61909 -4.01632 4.10304
1 -5.48076 -3.08427 4.29664
1 -6.11904 -3.48892 4.87525
1 -6.82156 -3.37052 5.40358
1 -6.62536 -3.25225 6.36474
1 -7.54095 -3.14322 6.72443
1 9.78467 1.48563 8.88693
1 9.96343 0.994039 9.68549
1 9.71813 0.0714475 10.0322
1 9.42227 0.576645 -10.5317
1 8.89527 1.29296 -10.2123
1 9.11716 1.40695 10.1297
1 8.19547 1.09458 10.0519
1 7.9122 1.80869 -10.6308
1 7.26694 2.10508 9.98591
1 6.48126 1.61213 9.82389
1 5.72987 6.80711 7.49698
1 5.21575 7.56219 7.72411
1 4.47079 8.15023 7.47643
1 4.67656 8.849 8.07526
1 3.69756 9.08753 7.95534
1 3.17937 8.89849 7.2083
1 4.07024 9.24473 6.91373
1 3.64085 9.96245 7.4317
1 2.97554 10.298 8.05899
1 3.88877 10.2104 8.38094
1 7.61772 0.753585 -6.72427
1 7.1657 1.37091 -7.28754
1 7.0892 0.513846 -7.78335
1 7.98617 0.338433 -8.11063
1 8.30584 0.902437 -7.46518
1 8.83157 1.76596 -7.27219
1 9.70725 1.69551 -6.83464
1 10.5007 2.34613 -6.71382
1 -10.3769 1.78614 -6.07841
1 -9.70082 1.76365 -5.47261
1 -1.28509 10.6038 -9.36384
1 -0.964546 10.3071 -10.188
1 -1.21928 -10.587 10.3204
1 -0.307323 -10.3912 10.4873
1 -0.374256 9.90828 10.3814
1 0.112995 9.52594 9.63593
1 0.679747 9.18113 10.3219
1 -0.128834 8.78497 10.5585
1 -0.928007 8.97587 -10.2506
1 -0.95361 9.42304 -9.28842
1 9.66062 7.24511 0.966372
1 9.55157 7.49857 0.0975725
1 8.89268 6.97833 -0.436149
1 9.35876 6.45265 0.206765
1 8.70172 6.81191 0.773917
1 8.10551 6.38787 1.34243
1 8.25063 5.52285 1.0156
1 8.48603 4.54894 0.935849
1 9.20096 5.12616 1.08776
1 9.25695 5.39575 0.222802
1 9.36591 4.50519 8.13434
1 9.21979 3.67233 7.61655
1 8.92415 3.11165 6.9823
1 8.45688 3.87982 6.68452
1 8.32626 4.49648 7.41058
1 8.88235 4.78907 6.58258
1 9.69728 4.80564 7.07632
1 9.46538 5.62622 7.54406
1 9.97496 6.4027 7.08183
1 9.33083 6.80352 6.56578
1 10.2035 -9.50796 -10.32
1 9.38499 -9.08127 -10.6285
1 9.47866 -9.95153 10.3646
1 8.69523 -9.40533 9.95226
1 7.81853 -9.28025 9.84158
1 7.19029 -9.28754 9.11586
1 7.43494 -9.76666 8.33084
1 7.82184 -10.2824 9.06269
1 7.13766 10.5299 8.54356
1 7.84514 9.97331 8.16306
1 -3.14527 -1.20488 -3.55183
1 -3.3127 -2.1768 -3.61992
1 -4.02676 -2.13716 -4.27204
1 -4.44362 -2.17785 -5.08655
1 -5.13396 -2.13768 -4.36426
1 -5.60177 -1.51692 -3.85183
1 -5.48593 -2.034 -2.99489
1 -5.43599 -2.71908 -3.63601
1 -5.40353 -3.24965 -2.86917
1 -5.49468 -4.10722 -2.48082
1 1.94533 -7.31516 10.4193
1 2.08458 -7.96415 -10.1617
1 1.18795 -8.04032 -10.4313
1 0.417813 -7.75944 -10.0138
1 1.1243 -7.37725 -9.466
1 1.08943 -6.39262 -9.3044
1 1.55338 -6.03401 -10.0289
1 1.51416 -6.28957 10.3904
1 0.890469 -7.01842 -10.6258
1 0.602277 -6.07555 -10.5379
1 9.77151 -0.216128 5.43322
1 10.2105 -1.08643 5.16912
1 10.3069 -1.67041 6.05142
1 10.3187 -2.52572 6.41691
1 -10.1205 -2.15062 6.54543
1 -10.2506 -2.45923 5.70015
1 -9.63513 -2.71067 5.03841
1 -8.99195 -2.35372 4.44029
1 -9.2305 -1.61683 5.01723
1 -10.1647 -1.64542 5.03921
1 -0.473419 -9.67211 -5.79012
1 -1.38797 -9.49521 -5.66074
1 -1.62157 -9.79776 -6.48019
1 -2.18416 -9.32409 -7.12112
1 -1.33339 -9.21975 -7.5162
1 -0.717884 -9.38136 -6.76945
1 -0.550398 -8.62507 -7.41869
1 -0.264945 -7.83381 -7.90205
1 -0.068029 -7.14457 -7.25449
1 -0.588045 -7.59582 -6.55045
1 -5.73555 6.57983 8.24174
1 -5.03776 5.88053 8.3808
1 -4.87105 4.97153 8.77784
1 -4.9075 4.0466 8.68582
1 -5.60778 4.31205 9.38903
1 -5.2903 3.42469 9.62886
1 -5.16325 2.46604 9.66634
1 -4.60377 2.759 8.9804
1 -4.35789 3.11186 8.16651
1 -3.74288 3.19804 7.35021
1 5.11748 5.92599 10.2857
1 5.03778 5.20677 -10.4519
1 4.73945 6.07195 -10.0069
1 5.17304 6.83474 -10.3763
1 6.04552 6.70248 -10.6212
1 5.74103 7.52319 10.2667
1 5.96124 7.05432 9.49967
1 6.83104 6.78812 9.87286
1 7.14615 6.76079 -10.5149
1 7.64879 7.5139 -10.2548
1 8.29566 6.84679 6.92352
1 7.67218 6.62366 7.5627
1 7.05835 7.34744 7.58923
1 6.22134 7.67485 8.02394
1 6.65613 7.07953 8.66238
1 7.43772 7.43608 9.17084
1 7.86194 6.78123 8.58256
1 7.78162 6.60262 9.55352
1 8.41398 7.20621 9.87109
1 9.29031 6.82737 9.99572
1 5.36605 9.10671 -9.8232
1 6.21923 9.55231 -9.59332
1 7.13157 9.84164 -9.83201
1 6.56581 10.5902 -9.95604
1 6.40388 10.2076 10.5094
1 7.12578 10.6267 10.0483
1 6.4894 10.4245 9.433
1 6.68528 9.59243 9.81587
1 7.45081 9.89392 9.32635
1 7.09033 9.39737 8.56784
1 -2.49786 -3.15803 2.07246
1 -2.83564 -4.02275 1.65428
1 -3.07768 -3.96892 2.65554
1 -3.49263 -3.25718 3.09324
1 -4.28223 -3.82665 2.9683
1 -4.2192 -3.59139 3.86124
1 -4.29082 -4.48929 4.09201
1 -4.52846 -5.41211 4.15108
1 -3.93337 -5.27955 3.36135
1 -3.78268 -6.15576 3.70587
1 10.2985 -4.57358 2.56652
1 9.70769 -5.05702 3.16493
1 9.04834 -4.94843 2.39045
1 8.80969 -5.81774 2.06982
1 9.68039 -6.11239 1.69796
1 8.95239 -6.59834 1.31016
1 8.99842 -7.30705 0.64563
1 9.48825 -7.98132 0.1175
1 9.18283 -8.33312 0.912202
1 8.29315 -8.12977 0.71508
1 9.2192 2.51377 9.27562
1 8.62436 2.43018 10.0193
1 8.27741 3.07255 9.38837
1 7.7465 2.9883 10.1985
1 7.32482 3.5879 9.53811
1 7.76014 4.44681 9.19702
1 8.42064 3.94981 9.70357
1 8.58929 3.44576 10.5734
1 8.49829 2.80064 -10.0494
1 8.31761 1.96414 -9.50599
1 -4.92882 3.61936 7.68809
1 -4.04986 4.12008 7.72926
1 -3.80337 4.71929 8.51049
1 -4.07567 5.65317 8.6505
1 -3.66433 6.43102 8.19622
1 -3.39817 6.07723 7.30197
1 -2.91799 5.86312 6.50285
1 -2.15547 5.89014 5.99667
1 -1.97228 5.88494 6.95177
1 -1.22658 6.4138 6.79555
1 6.65079 -8.17089 6.69645
1 7.01758 -8.91717 7.15785
1 7.88268 -8.98789 6.63748
1 7.89714 -8.94288 7.70555
1 7.28929 -8.45905 8.26017
1 8.13344 -8.63921 8.67618
1 8.51531 -9.48733 8.80179
1 9.2939 -9.95963 8.59106
1 8.67275 10.646 8.46403
1 8.70042 10.3443 7.56239
1 3.7546 1.10127 -2.5346
1 2.83996 1.18195 -2.3924
1 3.12919 1.38382 -1.45416
1 2.54202 2.05006 -1.32931
1 1.70427 1.92961 -0.879838
1 1.38253 2.7141 -1.3877
1 0.766929 3.46234 -1.19513
1 0.435034 2.74422 -1.76926
1 0.941864 3.284 -2.36365
1 0.119476 3.82074 -2.23641
1 -6.73118 0.159898 -0.275422
1 -6.08017 0.869853 -0.330591
1 -5.76669 0.0197008 -0.579196
1 -6.33445 -0.287398 -1.31192
1 -6.51998 0.589464 -1.14359
1 -5.62392 0.742518 -1.40925
1 -5.13357 0.799191 -0.519598
1 -4.59112 1.23501 -1.2543
1 -4.53894 1.8966 -0.566435
1 -5.51785 1.78299 -0.736855
1 -2.95059 9.94776 -8.48223
1 -2.1364 10.2573 -8.78338
1 -2.03675 -10.1255 -8.3693
1 -2.11892 -9.13253 -8.35208
1 -1.26968 -8.66565 -8.32497
1 -1.64117 -8.28178 -9.06552
1 -2.26977 -8.09194 -8.40445
1 -2.21374 -7.22432 -8.05894
1 -1.7412 -7.09793 -7.17139
1 -1.48303 -8.01801 -7.47072
1 1.39698 8.19445 -2.59363
1 2.23489 8.2137 -2.16033
1 2.97315 8.02447 -1.53615
1 3.92053 8.05265 -1.71387
1 3.48719 8.52518 -2.42936
1 4.36754 8.49948 -2.68016
1 4.51127 8.63586 -3.58471
1 3.82481 9.21935 -3.27577
1 4.32353 9.81616 -3.84293
1 4.75321 9.63715 -3.00723
1 3.66242 -6.37591 -1.46891
1 3.32403 -5.61019 -1.09167
1 4.04361 -5.62917 -0.424745
1 4.25791 -6.27197 0.206467
1 3.46074 -6.39048 0.859722
1 3.00871 -7.27402 0.963281
1 2.09036 -7.38216 0.794181
1 1.98349 -6.96583 1.69257
1 1.15744 -7.15534 1.27709
1 1.50479 -6.30131 1.04863
1 1.97063 -5.27312 -3.34592
1 1.2016 -5.90762 -3.34834
1 0.985042 -5.13435 -3.84288
1 0.12364 -5.52589 -3.6045
1 0.0207929 -6.21969 -2.97306
1 -0.319616 -6.70155 -2.21909
1 -0.751672 -7.565 -2.22524
1 -1.04261 -6.98513 -2.93483
1 -1.82939 -7.72646 -3.14389
1 -2.64531 -7.38262 -3.30077
1 3.50394 -5.427 -8.67776
1 2.8082 -5.19505 -9.19906
1 3.11705 -5.29396 -10.1581
1 3.56868 -5.3998 10.2928
1 4.28615 -5.17829 -10.348
1 4.48354 -4.75728 10.1383
1 3.99094 -4.76161 9.34701
1 3.39633 -4.24493 8.77749
1 3.85519 -3.74864 8.09406
1 4.48928 -4.36833 8.44569
1 10.0512 -0.751771 9.27288
1 10.4985 -0.646056 10.0851
1 9.81491 -0.761489 -10.5934
1 8.95041 -0.40729 -10.5515
1 8.06941 -0.792473 -10.4881
1 7.95668 -0.734826 9.84606
1 8.64179 -0.0853521 9.80349
1 8.13409 0.212255 10.5845
1 7.95795 0.319177 -9.77652
1 8.6443 0.84699 -9.26705
1 2.90475 -5.3168 3.45562
1 2.70868 -6.06548 2.8797
1 2.32749 -5.25379 2.52711
1 1.89541 -6.09575 2.28311
1 0.971312 -6.11564 2.70589
1 1.27698 -6.82245 3.38079
1 0.457099 -6.80233 3.81613
1 -0.0463713 -6.77309 2.9536
1 -0.816867 -6.37625 3.34188
1 -1.25213 -7.14825 3.18168
1 4.06896 3.17987 -8.01791
1 4.48798 3.99365 -8.30967
1 4.96462 4.85309 -8.44664
1 5.16178 5.63111 -7.96091
1 4.4484 6.22888 -7.72136
1 3.81443 6.03162 -6.99663
1 4.24963 5.35581 -6.42329
1 4.07358 6.14537 -5.89376
1 4.70024 6.81963 -5.97871
1 5.59697 7.21229 -5.90623
1 2.11319 8.52644 8.32567
1 2.39119 9.34999 7.80347
1 2.37869 9.62248 6.89944
1 1.93284 9.48259 6.08108
1 1.27327 9.83973 5.52563
1 1.04842 10.107 4.66631
1 2.00593 10.3099 4.38697
1 2.92233 10.2354 4.59273
1 2.50142 9.97981 5.43961
1 3.19345 9.51907 5.98914
1 -8.59365 8.47469 5.76572
1 -8.92125 7.84072 5.08546
1 -9.69513 7.28929 5.15667
1 -9.18402 6.77254 4.42547
1 -9.76411 6.00377 4.15272
1 -10.1651 6.84214 4.22561
1 -10.626 6.47873 4.97026
1 10.2395 7.25309 4.78348
1 9.80068 7.57265 5.57139
1 9.60991 8.48595 5.37488
1 -8.5197 0.967598 -6.55944
1 -9.23005 1.52355 -6.40154
1 -8.74139 2.25488 -6.76937
1 -9.58112 2.66344 -7.04249
1 -10.088 2.88509 -6.28989
1 -9.97453 3.6779 -6.78171
1 -9.01169 3.5837 -6.64979
1 -8.2292 4.22916 -6.53371
1 -7.34533 4.34369 -6.08625
1 -6.41117 4.65677 -5.69916
1 -4.63465 -4.42452 -0.0899445
1 -5.33575 -4.75253 0.375202
1 -5.44815 -5.71395 0.198247
1 -6.29745 -5.44861 0.610529
1 -6.59216 -6.0678 -0.164419
1 -5.90447 -6.65825 -0.565279
1 -5.36447 -6.22422 -1.31431
1 -4.54652 -6.4186 -0.85369
1 -3.67613 -6.2136 -1.14281
1 -2.78603 -6.08779 -0.7687
1 -2.40311 6.44443 -5.48097
1 -2.62355 5.54886 -5.81448
1 -2.08461 5.34117 -5.02527
1 -2.41656 4.53297 -4.72314
1 -1.72647 3.89068 -4.5093
1 -2.50198 3.44763 -4.95959
1 -1.81733 3.91827 -5.53891
1 -1.36875 4.66457 -5.97691
1 -1.96607 4.83675 -6.69093
1 -1.41618 5.37104 -7.34044
1 6.79085 6.94027 -7.98379
1 7.71178 6.91486 -8.36373
1 8.01508 7.15266 -9.26702
1 8.75278 7.03783 -8.68915
1 9.70184 6.70194 -8.74603
1 10.2055 6.98948 -7.96223
1 9.39426 6.72663 -7.66937
1 8.94243 7.58881 -7.61208
1 8.21937 7.77704 -8.12181
1 7.84303 8.70005 -8.09431
1 -7.16702 4.46026 -10.0573
1 -8.07015 4.2839 -9.68436
1 -8.87206 4.26041 -10.2999
1 -9.83391 4.36151 -9.97864
1 -10.3179 3.56047 -9.91677
1 -10.3902 2.70797 -9.3959
1 -9.69014 2.09154 -9.1694
1 -10.4854 1.54351 -9.16416
1 -10.4303 2.27756 -8.47538
1 -10.426 3.01666 -7.78168
1 8.36615 5.42766 5.13689
1 8.35441 6.17965 4.63514
1 8.89689 6.90093 5.0047
1 9.17227 7.69502 4.46497
1 8.65128 7.94777 5.23389
1 8.00876 8.60444 4.96262
1 7.79607 8.31967 5.84508
1 8.23261 7.57063 6.29071
1 9.12233 7.81663 6.38451
1 8.80921 8.18193 7.21882
1 3.87687 -7.85986 10.2156
1 4.62028 -8.50846 10.2596
1 4.38922 -8.38188 -10.1331
1 5.17501 -8.74652 -9.72949
1 5.51512 -8.17728 -10.4429
1 5.48222 -7.35622 -10.0219
1 5.87135 -6.99901 10.4146
1 6.19408 -6.25383 9.90097
1 5.48422 -5.79464 10.3472
1 4.58758 -5.83968 10.1171
1 4.33889 -9.08286 -9.26945
1 4.41051 -10.034 -8.93759
1 4.3314 -9.95799 -8.01585
1 4.71484 -10.1994 -7.16684
1 4.62162 -9.28119 -7.04726
1 3.97376 -8.99792 -6.35848
1 3.51787 -9.84511 -6.53323
1 4.06982 -10.4655 -6.089
1 4.39634 9.99846 -5.73209
1 3.48765 10.0412 -5.40474
1 9.34122 5.86666 3.08397
1 8.57433 5.36381 2.92669
1 8.45262 4.98748 3.7629
1 9.40613 4.91183 3.51265
1 9.45813 4.57277 2.60101
1 9.83545 3.764 2.22173
1 9.19276 4.17791 1.633
1 9.98651 4.74182 1.74799
1 -10.5124 4.15331 1.83981
1 10.1763 3.87248 1.17555
1 -10.1781 -7.17616 -7.41808
1 -9.39684 -6.95861 -7.89265
1 -8.8876 -6.62532 -8.65166
1 -8.12128 -6.13891 -8.90739
1 -8.67459 -6.56816 -9.69122
1 -8.15821 -7.22301 -9.19185
1 -7.60009 -7.94431 -8.9289
1 -7.41883 -8.85498 -8.5145
1 -6.83125 -9.58393 -8.82499
1 -6.49335 -9.04108 -8.17013
1 8.08921 -6.76162 -7.34889
1 7.14838 -6.87643 -7.11941
1 6.51923 -6.56494 -6.40172
1 5.96506 -6.35992 -7.21771
1 6.12083 -5.5319 -7.71019
1 6.36085 -4.57401 -7.82686
1 5.37992 -4.45923 -7.88526
1 5.25802 -5.31416 -7.29759
1 5.60126 -4.54129 -6.79013
1 5.63128 -4.83029 -5.85596
1 3.3807 -4.9959 2.09053
1 3.3162 -5.91106 1.9546
1 4.15718 -6.46627 2.01893
1 4.72487 -7.25531 1.84991
1 3.94878 -7.42155 1.26448
1 3.82418 -7.91085 2.0602
1 4.20865 -8.5874 1.44515
1 4.9927 -9.22296 1.54714
1 4.42265 -9.18061 2.41605
1 4.26828 -10.1373 2.36384
1 -8.52018 -0.615306 8.56547
1 -9.39738 -1.07048 8.50997
1 -9.16175 -1.9024 8.17146
1 -9.4068 -2.82688 8.27565
1 -9.17237 -3.54875 7.65342
1 -8.70024 -4.2874 8.07237
1 -9.17618 -4.9808 8.68066
1 -9.69069 -4.4802 9.34611
1 -9.80011 -4.16112 8.41047
1 10.535 -4.05863 8.12563
1 -6.00559 4.22771 -4.67884
1 -5.39128 3.6053 -4.8327
1 -4.82805 3.05115 -4.21571
1 -4.40795 3.73986 -4.6918
1 -4.16066 3.82887 -3.77784
1 -3.69388 4.53458 -4.45327
1 -3.50467 5.1187 -5.16801
1 -3.62668 4.19624 -5.46442
1 -2.78679 4.36444 -5.80508
1 -2.95873 3.45736 -6.07766
1 4.5863 6.13369 9.29585
1 3.59078 6.14703 9.39104
1 3.77323 5.81745 8.48221
1 3.00812 6.19717 8.0965
1 2.6955 6.33452 9.04484
1 3.31801 6.96349 8.69746
1 3.1242 7.79243 8.34005
1 3.15695 7.17647 7.5977
1 2.36625 6.96447 7.99475
1 2.51211 6.53407 7.15406
1 5.5358 -9.21754 -8.81962
1 5.27041 -9.49091 -7.92716
1 5.8302 -8.79127 -7.75017
1 5.59325 -9.20976 -6.90038
1 6.49057 -9.56604 -6.84036
1 5.85862 -10.187 -7.19999
1 6.4006 10.3023 -6.82621
1 5.99444 10.1303 -7.69219
1 5.18846 10.575 -7.99701
1 5.9671 -10.2804 -8.45543
1 0.25312 5.97201 -4.27123
1 0.526068 6.86634 -4.19307
1 0.927247 6.45377 -4.99704
1 1.42441 7.31723 -5.25497
1 1.16963 8.16605 -4.91543
1 0.68943 8.75392 -5.53829
1 0.930809 8.59469 -6.42732
1 0.956167 7.93661 -7.11927
1 1.72348 7.72439 -7.62501
1 1.64718 7.18587 -6.8009
1 2.10939 5.86895 -3.45994
1 1.6882 5.50749 -2.65557
1 1.18891 6.23799 -2.28765
1 0.628168 5.63345 -1.83411
1 -0.189321 5.62559 -1.38435
1 0.0207286 4.69554 -1.16795
1 -0.149189 3.90701 -0.614994
1 -0.328549 3.18127 -1.26662
1 -1.1219 2.60842 -1.28447
1 -1.80496 2.83455 -0.676976
1 -2.2723 0.67415 -0.650056
1 -1.46363 0.286655 -0.891554
1 -0.788777 0.837744 -0.550497
1 -1.11111 0.161354 0.115922
1 -0.271978 -0.0269925 0.447476
1 0.0918273 -0.750424 0.96509
1 -0.394766 -0.208088 1.65438
1 -0.68159 -0.291029 2.53819
1 -0.266541 -0.955166 3.03552
1 0.0118499 -0.134433 3.43791
1 -7.77065 -1.20252 9.35321
1 -6.84172 -1.47178 9.23616
1 -5.9351 -1.63753 9.60627
1 -6.69917 -1.62144 10.2275
1 -5.85421 -1.651 10.5926
1 -6.34951 -2.49402 10.6074
1 -5.58173 -2.60286 10.0556
1 -6.08902 -2.68939 9.27291
1 -6.03375 -3.54136 8.81555
1 -5.66867 -4.43812 8.84343
1 1.16321 4.55437 9.46874
1 0.478788 4.83085 10.0659
1 0.238742 5.50301 9.365
1 -0.0860154 4.5851 9.20662
1 -0.586247 3.76507 9.18084
1 -0.65229 2.8253 9.14612
1 -0.309737 2.30956 9.9305
1 0.500521 1.98884 9.50969
1 0.786199 1.57857 8.69581
1 1.41452 1.53999 9.4026
1 -2.01972 -1.13742 -6.80933
1 -1.74103 -0.574117 -7.51457
1 -1.00837 -0.71057 -8.16481
1 -1.38626 -0.350053 -8.96365
1 -0.560629 0.149599 -8.6723
1 0.0600101 -0.417254 -8.34252
1 -0.388605 -1.31645 -8.64865
1 -0.708942 -1.4895 -9.52244
1 -1.4224 -0.92375 -9.80779
1 -1.8526 -0.733822 10.5932
1 7.38918 -8.05283 -6.81967
1 7.40853 -7.36793 -6.15756
1 8.14083 -8.04655 -6.08177
1 8.44889 -7.36845 -5.49343
1 8.80695 -7.2409 -4.67504
1 9.74296 -7.49912 -4.48859
1 10.3548 -7.84678 -3.80002
1 10.3565 -7.50204 -2.92779
1 10.4849 -6.54525 -2.81041
1 10.1881 -6.68577 -3.73626
1 -10.6163 1.54514 4.80983
1 10.6298 2.15862 4.0809
1 -10.3598 1.63467 3.40139
1 -9.78165 0.994155 2.86639
1 -10.2973 1.16065 2.07431
1 -9.99127 1.14227 1.19245
1 -9.12387 1.3918 1.57766
1 -8.50464 2.14159 1.39896
1 -8.27749 2.8653 0.786441
1 -8.54548 3.21902 -0.0503717
1 -9.63118 8.79727 3.47047
1 -10.493 8.61613 3.85515
1 -9.98028 9.11474 4.51234
1 -10.5325 8.53809 5.0147
1 10.2403 9.28651 4.69558
1 9.90626 10.0386 4.17716
1 -10.4554 9.78825 4.03924
1 -9.88824 10.206 4.78196
1 -9.07082 -10.5854 4.72292
1 -8.13067 -10.3809 4.94606
1 0.987569 -8.98202 8.21449
1 0.156605 -8.6189 8.71033
1 -0.345807 -8.44872 9.46639
1 -0.577026 -8.46329 10.3989
1 0.216097 -8.94437 10.6203
1 -0.590649 -9.48115 -10.3296
1 -0.876199 -9.45405 10.0978
1 -1.50414 -9.04184 -10.5947
1 -2.01151 -9.39468 10.0351
1 -2.91965 -9.57786 9.92524
1 7.47794 8.4431 -5.21597
1 7.04657 9.28289 -5.25622
1 7.79994 9.72453 -5.44374
1 8.61897 9.46411 -4.93025
1 7.94777 9.10003 -4.31903
1 8.10043 10.0182 -4.02247
1 8.79532 10.4347 -3.51509
1 9.36917 10.0115 -2.77865
1 10.0786 9.84267 -2.21219
1 10.0436 9.39134 -1.33722
1 -6.20448 -7.16596 4.78657
1 -6.59205 -6.7742 3.93263
1 -6.29143 -5.8801 3.92357
1 -6.85527 -6.17122 4.74486
1 -6.81343 -6.40451 5.68994
1 -7.23026 -7.08728 5.11638
1 -7.21083 -8.00255 4.99412
1 -6.90115 -8.23453 5.8829
1 -6.02896 -8.01076 5.3082
1 -5.32912 -7.47804 5.48137
1 -7.16358 1.75645 -7.64351
1 -7.49689 1.86917 -8.54642
1 -6.53699 1.6083 -8.69076
1 -5.91502 0.986069 -8.52357
1 -5.49385 1.0935 -7.68112
1 -5.08798 1.74703 -8.1715
1 -4.47472 2.47181 -7.8638
1 -4.05081 2.65058 -8.62806
1 -3.7671 2.65561 -9.55037
1 -3.45266 1.71877 -9.56699
1 -1.64963 8.56199 -3.37886
1 -1.32213 9.05106 -4.17859
1 -1.11307 9.93347 -4.29834
1 -1.70945 9.88598 -3.55423
1 -2.23184 9.78512 -4.41136
1 -2.36284 9.01821 -4.87831
1 -2.87331 9.35209 -5.62896
1 -3.33807 8.55429 -5.68622
1 -4.22341 8.67789 -5.89618
1 -3.90709 9.42955 -5.36666
1 -4.11132 7.52131 6.22395
1 -4.35129 8.35715 6.56414
1 -3.90637 9.05929 6.93479
1 -2.98807 9.04548 6.59126
1 -2.46376 9.58764 6.06892
1 -2.9006 10.4287 6.28864
1 -3.79803 9.97917 6.44245
1 -3.85103 -10.5825 5.85243
1 -3.75387 -10.2996 6.7749
1 -4.08483 -10.0399 7.63867
1 8.69664 8.0577 -6.67207
1 8.54358 8.6899 -7.35605
1 8.3394 9.40964 -6.6619
1 7.91187 8.88404 -6.02923
1 7.47394 8.78257 -6.93123
1 7.0755 7.90977 -6.96654
1 7.70763 7.82273 -6.25712
1 7.97971 7.35016 -7.04446
1 8.27189 6.77649 -6.28046
1 7.47114 6.47564 -6.83268
1 6.04202 7.36813 5.21968
1 5.26186 7.05917 5.67025
1 4.96722 7.13347 6.52686
1 4.62911 6.3205 6.81396
1 5.022 6.00754 5.96826
1 4.44139 5.2514 5.75431
1 3.62242 5.42268 6.18451
1 3.42493 6.38092 6.53536
1 3.5251 5.71791 7.2212
1 2.60171 5.41182 6.79988
1 6.98311 0.327453 8.50385
1 6.49498 0.0341896 7.6832
1 6.06019 0.854099 7.88234
1 5.75307 1.03758 6.93613
1 6.54476 0.524456 6.65831
1 7.31899 1.07097 6.54175
1 7.55483 1.40144 5.7167
1 7.93624 1.9326 5.00917
1 7.92109 2.49598 4.20362
1 7.21386 1.81497 4.19079
1 -7.1773 0.964973 0.696736
1 -8.0036 1.22281 1.31485
1 -7.42688 2.04531 1.195
1 -6.56031 1.65024 1.43463
1 -5.77383 1.8092 2.00682
1 -6.2861 2.0697 2.80969
1 -6.6613 2.81866 3.1791
1 -7.13688 1.99441 3.32682
1 -7.97915 2.15274 3.68344
1 -8.46427 1.50025 4.17395
1 6.33075 -6.22363 5.76712
1 6.37275 -5.42411 6.28334
1 5.76328 -5.83381 6.90525
1 6.22174 -6.10445 7.70148
1 6.35799 -5.10147 7.99072
1 6.10096 -4.29248 8.36306
1 5.97292 -4.19801 9.32227
1 6.99395 -4.23658 9.28189
1 7.60166 -3.87144 8.67526
1 8.3684 -4.48451 8.93609
1 9.54611 1.17369 -8.98969
1 9.9127 1.90358 -9.47039
1 9.70779 2.26925 -8.54434
1 9.95271 1.7876 -7.85077
1 -10.3787 1.81453 -7.59389
1 10.5339 1.03108 -8.03003
1 -9.93599 0.924642 -8.40984
1 -9.44194 1.62483 -7.96177
1 -8.54679 1.96334 -7.80217
1 -8.15726 1.08504 -8.03362
1 7.45852 -3.25832 1.54121
1 7.63668 -2.36995 1.81319
1 7.80798 -2.70481 2.65363
1 8.54473 -3.17016 2.32305
1 8.80918 -2.39956 2.87656
1 8.77017 -1.71264 2.18021
1 9.34792 -1.1554 1.65845
1 10.253 -1.30399 1.50282
1 -10.1549 -1.5611 1.53005
1 -10.5307 -2.44457 1.51895
1 -9.27488 9.57762 0.588808
1 -9.73257 10.4487 0.441323
1 -9.61271 -9.92631 0.203597
1 -10.4562 -9.73269 -0.220115
1 10.0429 -9.57363 0.216987
1 9.96334 -8.7548 -0.373062
1 9.21043 -8.92543 0.147622
1 9.20699 -9.51623 0.935565
1 8.30661 -9.21691 1.13123
1 8.62528 -9.85206 1.71374
1 -0.0789409 10.4034 4.54214
1 -0.542265 9.51093 4.35366
1 -1.30508 10.1502 4.52238
1 -0.86327 10.0387 3.58589
1 -0.404219 9.76586 2.74529
1 -1.12237 10.0796 2.09713
1 -1.12382 9.69763 1.12331
1 -1.73905 9.65385 0.398597
1 -2.2813 8.95992 0.822474
1 -2.33183 9.26895 1.70774
1 0.449071 -0.426734 -1.01224
1 -0.0047356 0.288678 -0.438118
1 0.0918254 0.823128 -1.23927
1 -0.61438 0.836623 -1.92232
1 -1.13538 0.0185727 -1.88961
1 -2.09446 0.117541 -1.73324
1 -2.03153 0.177567 -2.73803
1 -2.93563 0.00775199 -2.79392
1 -3.76441 -0.282679 -3.16374
1 -4.1511 -1.00808 -2.6686
1 2.17079 1.01893 7.51014
1 1.53196 1.74717 7.72243
1 1.83598 2.22022 6.91109
1 2.7861 2.02802 7.31709
1 3.01042 1.64727 8.2204
1 2.7275 1.29905 9.05603
1 3.69307 1.29894 9.28214
1 3.88834 0.382073 9.36248
1 4.7281 0.137935 9.02201
1 5.60935 -0.142145 8.76804
1 -5.18207 -8.82991 5.72582
1 -4.58835 -8.1482 5.3269
1 -4.72829 -8.92052 4.74413
1 -5.21404 -8.31162 4.23871
1 -4.65579 -7.57447 3.80751
1 -5.55554 -7.50168 3.43478
1 -4.99849 -6.7391 3.10305
1 -4.46189 -7.51933 2.82123
1 -4.60033 -8.49339 3.10992
1 -3.78909 -8.26589 3.69987
1 3.77032 8.22186 -4.84856
1 3.80846 7.66754 -5.60493
1 4.6284 7.97665 -5.89494
1 5.1194 8.51433 -6.58792
1 5.92132 8.0644 -6.52603
1 6.63558 7.66233 -6.04914
1 7.18755 6.91962 -5.82999
1 6.99024 5.98747 -6.09577
1 6.10081 6.19702 -6.42405
1 6.56997 6.97835 -6.85148
1 -3.94969 2.78263 -0.537227
1 -3.09245 2.36626 -0.441622
1 -2.89217 3.06119 0.0824428
1 -2.07298 2.68569 0.464223
1 -1.22035 2.37104 0.845674
1 -1.9131 1.66221 0.85247
1 -1.24583 1.13635 0.424371
1 -2.18396 0.772757 0.346752
1 -2.4133 -0.069393 0.812946
1 -1.59514 0.302082 1.14405
1 8.62848 -4.68839 -2.10095
1 9.36078 -4.32406 -1.53232
1 10.1462 -4.88355 -1.55554
1 9.43966 -5.50524 -1.51354
1 9.17088 -5.85043 -0.648708
1 8.29974 -6.18947 -0.925895
1 8.05298 -5.33534 -0.696484
1 8.36913 -4.49928 -1.06845
1 7.47779 -4.75769 -1.36783
1 7.73156 -4.07938 -2.0341
1 -7.1083 4.42672 6.13783
1 -7.81936 4.57586 6.8415
1 -8.06135 3.82483 7.4263
1 -8.54408 3.55574 6.6921
1 -8.17151 4.11021 6.03343
1 -8.39294 4.94861 5.73873
1 -8.20575 4.38515 4.99382
1 -8.42528 5.28093 4.69839
1 -7.9757 6.00562 5.20125
1 -7.57692 6.80514 4.91114
1 -10.6058 7.27755 -8.83047
1 -10.1742 7.27836 -9.71152
1 -9.87632 7.987 -10.2726
1 -9.73573 8.75057 -9.55381
1 -10.629 8.51724 -9.41641
1 -10.4176 9.34654 -8.99292
1 -9.90204 9.89379 -9.639
1 -9.45301 9.78424 -8.75494
1 -9.6859 9.03887 -8.10642
1 -8.8409 8.95552 -8.65437
1 3.16533 -9.41002 -0.00460856
1 3.30178 -10.0624 0.66335
1 3.97838 -10.5962 1.12281
1 4.16685 -9.75644 1.4551
1 3.30394 -9.93295 1.64843
1 3.17799 -10.388 2.51453
1 2.41721 -10.4681 2.02256
1 2.09495 -9.5749 1.76203
1 1.74494 -8.82355 2.15045
1 1.20865 -9.44772 2.64524
1 2.31499 0.888592 -8.04338
1 1.65829 0.681305 -8.71277
1 1.55491 1.62507 -8.46141
1 0.735534 1.03623 -8.47655
1 0.0630837 0.663952 -7.95755
1 0.152975 0.0698902 -7.18579
1 -0.715384 -0.263689 -6.94031
1 -0.959514 0.483557 -7.61525
1 -0.325982 1.10107 -7.15259
1 0.689087 1.16415 -7.05386
1 2.29167 -3.98516 -0.372301
1 2.02658 -4.10321 0.520521
1 1.92316 -4.3833 1.45414
1 1.27558 -3.76088 1.10885
1 0.467151 -3.35167 1.37314
1 1.10966 -2.74641 0.981152
1 2.03775 -3.03391 0.859743
1 2.09156 -2.0884 0.757087
1 2.76444 -2.42986 0.228361
1 3.46464 -1.8365 0.299223
1 -1.73211 -7.81305 -1.85403
1 -1.42786 -8.5056 -2.49582
1 -1.96178 -9.05957 -3.0264
1 -2.22261 -9.83502 -2.54046
1 -3.04758 -9.32574 -2.61177
1 -3.54552 -9.29199 -1.78188
1 -3.51346 -8.35035 -2.15468
1 -2.71782 -8.31491 -1.59343
1 -2.4777 -8.27153 -2.4688
1 -2.76576 -7.42741 -2.05942
1 9.64205 8.60527 10.1895
1 10.2614 9.22306 9.87593
1 10.5473 9.17498 -10.5099
1 -9.84283 9.20125 10.4278
1 -9.22358 9.54198 9.74178
1 -9.05919 10.083 10.4373
1 -8.88926 10.6469 9.64815
1 -8.34175 -10.3974 10.4324
1 -7.7835 -10.4296 9.6712
1 -8.27151 10.6489 8.86386
1 1.31882 4.43804 -6.21685
1 2.19027 4.86567 -6.24053
1 2.622 4.78516 -5.39734
1 3.40927 4.12451 -5.36693
1 3.60884 5.0764 -5.54012
1 4.59818 4.96213 -5.26331
1 4.23998 4.33199 -5.92771