8000
Atoms. Timestep: 10000000
1 -6.78077 0.51869 -4.67143
1 -6.15132 1.16861 -4.40023
1 -6.56526 1.97806 -4.29717
1 -7.37831 1.5333 -4.58897
1 -7.23862 2.24357 -5.15794
1 -6.35019 2.71005 -5.03378
1 -6.3098 1.79083 -5.37377
1 -5.5344 1.19748 -5.35185
1 -6.22462 0.624562 -5.60859
1 -6.00448 1.34234 -6.37508
1 5.13769 -1.72256 9.42617
1 4.63673 -2.07632 10.2892
1 4.74307 -2.72351 9.54568
1 4.21794 -2.06128 9.06909
1 3.64446 -2.8228 8.64515
1 3.00782 -3.13742 7.92246
1 2.10499 -3.51934 8.08444
1 2.40409 -4.37265 7.80714
1 2.79622 -5.23228 7.36811
1 1.95347 -5.70176 7.46171
1 -3.35137 4.50355 6.08915
1 -3.18189 4.6643 5.13088
1 -4.0771 4.37297 5.32314
1 -3.8688 4.51041 4.40031
1 -3.17959 3.95444 4.23786
1 -3.24176 3.52764 5.0717
1 -3.59393 2.62531 4.84896
1 -4.06274 3.4086 4.44069
1 -4.21254 3.12303 3.58989
1 -4.67065 3.93573 3.71376
1 -0.413003 7.46629 10.1766
1 -0.640699 8.43826 10.1827
1 -0.885347 8.93975 9.42785
1 -1.42459 9.358 10.1542
1 -1.86404 9.56743 -10.3029
1 -2.63515 9.43185 10.4295
1 -2.27488 10.2369 10.1311
1 -2.64042 -10.3852 -10.5985
1 -2.17534 10.4979 -9.8256
1 -3.07268 10.585 -9.46248
1 -7.66215 -8.80726 -3.28544
1 -7.07061 -8.85689 -2.54075
1 -6.5892 -8.50641 -3.28805
1 -6.50678 -7.78962 -2.7161
1 -5.90658 -7.2006 -3.13281
1 -4.91346 -7.43528 -3.30235
1 -5.20324 -7.40957 -2.32717
1 -5.68188 -8.17522 -2.25352
1 -5.42624 -8.93478 -2.86504
1 -5.5723 -9.80259 -3.36757
1 -3.59898 -8.17033 1.70396
1 -3.938 -7.87632 2.56044
1 -4.0663 -7.86778 3.49139
1 -4.81386 -8.39578 3.75108
1 -5.18532 -7.69346 3.22939
1 -5.79405 -7.00088 3.50767
1 -4.96412 -7.0251 4.02923
1 -4.13471 -6.5243 3.7411
1 -4.06213 -7.05301 4.51042
1 -4.12879 -7.37376 5.38381
1 -8.70422 -10.3084 3.49883
1 -9.54498 -10.539 3.23514
1 -9.79937 9.8771 3.31661
1 -10.1021 10.3541 2.4634
1 10.2243 10.0854 2.44441
1 10.6094 9.21424 2.50182
1 9.95639 8.52209 2.27468
1 9.8777 9.36248 1.76489
1 8.92112 9.36982 1.66096
1 9.426 9.59404 0.865352
1 9.80012 -3.09298 -6.5304
1 10.241 -3.72708 -7.1394
1 -10.4571 -4.38546 -7.44832
1 -9.72782 -3.91142 -7.02035
1 -9.8688 -4.61035 -6.34014
1 10.6356 -4.18557 -6.35573
1 10.1195 -3.63065 -5.72285
1 10.1074 -3.53601 -4.71388
1 -10.5645 -4.01032 -4.19343
1 10.3775 -3.62507 -3.44777
1 3.67983 5.7486 -0.326925
1 3.66556 5.71333 0.615727
1 2.86883 6.12741 0.8706
1 2.30264 6.38006 1.60319
1 2.07786 5.55707 1.06807
1 1.97191 5.14814 1.91764
1 2.3267 4.30236 1.66332
1 2.83479 3.78097 2.33854
1 1.93177 3.35716 2.44477
1 1.99012 2.96145 3.33585
1 7.53286 3.65084 0.543595
1 7.32688 2.73111 0.397385
1 6.79122 3.03074 -0.377736
1 6.71939 3.22511 -1.35204
1 7.3612 2.69353 -1.8009
1 7.67631 3.5962 -1.89652
1 6.93005 3.972 -2.24543
1 6.34773 4.14134 -1.52621
1 5.61729 3.96102 -2.10238
1 5.7973 4.87349 -2.39065
1 -3.33679 -5.85307 8.62444
1 -3.28458 -5.47321 9.53608
1 -2.82856 -4.75842 9.88168
1 -3.68718 -4.45815 9.49789
1 -4.2807 -3.84069 9.93361
1 -4.72693 -3.73044 -10.5511
1 -5.37278 -3.30854 10.1389
1 -5.83222 -3.11502 9.33138
1 -6.73403 -3.31167 9.51615
1 -7.11881 -2.51426 9.05359
1 -7.58934 -2.11024 5.01525
1 -6.59312 -2.17654 5.25837
1 -5.94201 -1.63033 4.88168
1 -6.62121 -1.50059 4.21281
1 -7.53267 -1.38647 3.95618
1 -7.88005 -0.473249 4.22038
1 -8.59319 -1.00287 3.92685
1 -8.87094 -0.624837 3.04123
1 -8.58446 -0.365552 2.20915
1 -8.43733 -1.2941 2.16896
1 4.57049 -9.42328 -9.52896
1 3.72619 -9.43257 -9.14781
1 3.70501 -8.48407 -9.24307
1 3.23776 -8.48132 -8.38762
1 2.35844 -8.75155 -8.28164
1 2.87085 -8.98759 -7.46701
1 2.94818 -9.2163 -6.57607
1 2.5769 -8.7432 -5.7788
1 2.37847 -7.82266 -5.78919
1 2.07143 -8.13567 -5.00237
1 4.76612 1.72541 -8.0345
1 5.33965 1.08445 -8.53389
1 4.72578 0.976406 -9.17396
1 4.46034 0.530324 -8.40605
1 4.37831 0.290658 -7.50131
1 4.00831 -0.259651 -6.74462
1 3.24896 0.336096 -7.0122
1 2.37359 0.069655 -7.34388
1 1.42136 0.347299 -7.37469
1 1.34298 0.762628 -8.25107
1 1.54666 -8.19983 -3.06125
1 1.51321 -9.10209 -3.39955
1 0.695637 -8.87471 -2.90645
1 0.533168 -7.95638 -2.6398
1 0.080817 -7.94217 -1.81347
1 0.234749 -8.80051 -1.53617
1 0.0987456 -9.56748 -0.946931
1 -0.563172 -10.1866 -0.539879
1 0.378954 -10.4758 -0.680111
1 0.770695 9.97904 -0.94412
1 -4.13531 -9.35239 -0.185241
1 -4.69049 -9.29045 -1.00831
1 -5.62149 -9.1566 -1.20707
1 -5.95578 -10.043 -1.31739
1 -5.16856 -9.90827 -1.77943
1 -5.32742 10.5838 -2.26379
1 -5.61278 10.3546 -1.40462
1 -4.65658 10.4743 -1.41608
1 -4.08096 -10.0933 -1.40853
1 -4.30712 -9.95595 -2.3538
1 9.51213 -8.51241 -4.30337
1 9.44268 -8.44157 -3.42974
1 9.94235 -8.0843 -2.7483
1 10.08 -7.10122 -2.7371
1 -10.3213 -6.97508 -3.0251
1 -10.3705 -7.84034 -2.73045
1 -9.88994 -7.74358 -3.59165
1 -10.1844 -7.58418 -4.46523
1 -10.2763 -6.70333 -4.82502
1 -10.4127 -5.95462 -4.22016
1 3.77327 6.63041 -2.13538
1 4.6881 7.02767 -2.19427
1 4.01538 7.19027 -2.97065
1 3.1122 7.54981 -2.85237
1 3.27443 7.61434 -3.7741
1 3.11064 8.55802 -3.61482
1 3.84742 8.31035 -2.99723
1 4.18095 8.05416 -2.15314
1 3.60722 7.55447 -1.67368
1 2.84311 7.09609 -1.34363
1 -0.589118 4.56687 3.25548
1 -1.42297 4.27859 2.82117
1 -1.2219 4.07627 1.94359
1 -0.290946 3.94214 2.1469
1 -0.399713 3.4332 3.00549
1 0.545026 3.07047 3.2672
1 0.709967 4.01233 3.37083
1 0.0667209 3.85021 4.07035
1 -0.491968 3.9663 4.81381
1 -1.19473 4.07683 5.4234
1 0.711945 -4.94767 -0.0632709
1 1.17668 -4.91432 0.747005
1 0.480063 -4.82956 1.34031
1 -0.0217109 -5.45169 1.91085
1 -0.944118 -5.52386 2.30871
1 -0.779232 -5.66782 1.32691
1 -1.07568 -6.49405 1.63621
1 -1.51635 -6.63857 2.41686
1 -2.39999 -7.01632 2.56077
1 -2.02434 -7.52995 3.30381
1 -4.63474 2.57444 -4.81935
1 -5.51902 2.52385 -4.45799
1 -5.12007 3.33803 -4.1788
1 -4.74472 4.02244 -4.76978
1 -4.26316 3.45473 -5.40528
1 -4.91264 3.12107 -6.08614
1 -4.732 3.71704 -6.84331
1 -4.27507 4.21501 -7.53929
1 -3.90654 5.04738 -7.87366
1 -3.58286 5.79385 -8.35985
1 8.3074 0.0930883 2.69901
1 8.1213 -0.694083 2.16711
1 7.7219 -0.659353 3.03267
1 8.15199 -1.56504 3.06661
1 8.82423 -1.90916 2.52343
1 7.97392 -2.32071 2.39061
1 8.56954 -3.11099 2.21775
1 8.77321 -3.07687 1.20222
1 9.07298 -2.23854 1.47465
1 8.95691 -1.25712 1.64615
1 0.522692 -9.61554 3.38048
1 0.848687 -9.23384 4.19774
1 1.13953 -9.40086 5.20507
1 1.85975 -10.0641 5.2293
1 1.59828 -10.0973 4.31449
1 2.33311 -9.49531 4.37593
1 2.25944 -8.8689 5.10745
1 2.59084 -8.7361 5.953
1 3.5289 -8.80752 5.61321
1 3.31127 -7.86024 5.54142
1 9.02437 7.42173 -0.680965
1 9.73187 7.81353 -0.190843
1 9.15601 8.54741 -0.20162
1 9.73409 9.30751 -0.215648
1 10.545 9.05559 -0.613948
1 -10.3496 9.8421 -0.905725
1 -10.4729 10.6363 -1.36248
1 9.93675 10.3999 -1.34168
1 9.26615 9.66903 -1.12085
1 9.86693 9.17086 -1.73516
1 5.28703 1.09855 0.312571
1 5.68047 1.51761 -0.496304
1 4.73656 1.43366 -0.679489
1 4.5748 2.21616 -0.140804
1 3.90477 2.94324 -0.40221
1 3.25327 2.85983 -1.11887
1 3.47542 3.74928 -0.923891
1 4.31269 3.91118 -0.498306
1 4.84003 4.23645 -1.14342
1 5.39083 4.99814 -1.39643
1 8.67527 -1.72366 -0.14866
1 8.93626 -2.43393 0.414436
1 9.02378 -2.69992 -0.55564
1 8.90403 -3.41003 0.102733
1 9.69753 -3.77573 -0.288166
1 9.79996 -3.16314 -1.04941
1 9.3164 -3.0688 -1.88362
1 9.22017 -2.4209 -2.68589
1 10.1561 -2.35638 -2.93285
1 9.76674 -1.58918 -3.3737
1 5.45813 10.5285 -5.84597
1 5.89076 -10.0429 -5.39775
1 6.17888 -9.41035 -6.08329
1 5.88238 -8.89725 -6.76224
1 5.20683 -8.19185 -6.85997
1 4.8252 -7.92076 -6.01193
1 4.03938 -7.61478 -6.48167
1 3.58963 -8.47901 -6.6974
1 3.83065 -8.67106 -5.81729
1 3.43911 -7.84007 -5.54932
1 4.35641 -4.8551 -2.5255
1 4.9617 -5.41203 -2.03989
1 5.64426 -5.241 -1.25285
1 6.45958 -5.53418 -1.68077
1 5.99531 -5.02874 -2.3913
1 6.07044 -5.97521 -2.78631
1 6.7136 -5.22237 -3.06898
1 7.042 -6.13525 -3.07448
1 7.15872 -7.03011 -3.43887
1 7.26005 -7.37054 -4.29966
1 3.25743 -2.23415 -7.48094
1 3.78333 -1.52353 -7.02209
1 3.1925 -0.848628 -7.09596
1 2.78897 -0.804382 -7.9889
1 3.46875 -0.16433 -8.15433
1 4.11393 -0.785564 -7.86967
1 5.03219 -0.570567 -8.09969
1 5.9284 -0.476455 -7.83002
1 6.61375 -0.109429 -7.30969
1 6.89404 0.933842 -7.20961
1 -9.20524 -2.00611 1.86963
1 -10.1485 -2.06425 1.86568
1 -10.0516 -1.9199 0.933628
1 -10.5556 -2.78467 0.793437
1 10.4355 -3.55093 0.426744
1 9.7557 -2.89317 0.814924
1 10.0175 -2.73744 -0.0728133
1 10.5739 -2.04263 0.182761
1 10.5176 -1.95877 -0.755203
1 9.78376 -1.49558 -0.390114
1 -1.47783 1.94995 -10.4085
1 -2.45595 1.81698 -10.433
1 -2.2333 1.8044 9.93946
1 -1.92239 2.64711 10.1847
1 -1.05493 2.2642 9.98518
1 -1.27475 3.03445 9.51494
1 -1.08088 3.59642 10.2703
1 -0.522127 3.94195 -10.3845
1 -0.187844 4.3682 -9.61273
1 -1.11611 4.61025 -9.63738
1 -7.42477 -4.12331 -3.75607
1 -7.65298 -5.07338 -3.97544
1 -8.69784 -5.32987 -3.91986
1 -9.19835 -6.11172 -4.09958
1 -9.30974 -5.54215 -4.85766
1 -9.81256 -5.69763 -5.67667
1 10.6512 -5.63001 -5.34562
1 10.5963 -4.74134 -5.15411
1 -10.1852 -3.96408 -5.176
1 -9.49514 -4.50269 -4.6833
1 -8.36206 -7.84354 -3.71371
1 -8.01132 -8.58606 -4.19023
1 -7.62806 -9.48456 -4.2347
1 -6.71214 -9.58741 -4.37345
1 -7.30987 -9.77591 -5.29822
1 -8.01639 -9.16763 -5.10859
1 -7.39481 -8.44239 -4.97557
1 -7.19182 -7.6293 -4.5328
1 -7.30318 -7.62363 -3.65649
1 -7.69308 -7.93882 -2.80742
1 -10.2391 0.366202 -1.50428
1 -10.1532 1.32688 -1.27666
1 -10.37 1.10294 -0.396242
1 -10.1301 0.902516 0.500158
1 -9.18235 1.28885 0.557063
1 -9.2065 2.15842 0.143924
1 -8.53633 1.61701 -0.248548
1 -8.52757 0.947455 -0.914244
1 -7.78708 0.897561 -0.281431
1 -7.56057 0.732126 -1.20441
1 -8.61569 5.42386 -4.09689
1 -8.27768 6.26657 -3.83952
1 -8.58916 6.1111 -2.97362
1 -8.68179 6.91546 -2.47046
1 -9.2807 7.62074 -2.5122
1 -10.0596 7.68218 -2.98609
1 -9.91722 8.22681 -3.71382
1 -9.52216 9.12729 -3.76521
1 -9.70208 9.30419 -4.66558
1 -8.98481 8.62627 -4.43667
1 5.80949 1.90376 9.68496
1 6.24268 2.52644 10.3149
1 5.79989 3.28478 -10.6433
1 6.14043 2.68884 -10.0016
1 6.61284 3.44931 -10.2233
1 7.26226 3.78964 10.4319
1 6.99669 4.58134 9.92494
1 7.24091 4.73703 8.98281
1 7.35312 3.6886 8.96835
1 7.75791 2.8298 8.76426
1 4.87931 7.99953 2.68054
1 3.94705 8.2455 2.96846
1 3.56053 7.70006 3.73119
1 4.01687 8.28188 4.26977
1 4.48075 9.13198 4.11685
1 4.59829 8.73113 4.99189
1 3.6497 9.12075 4.92938
1 3.52747 9.50711 4.09312
1 3.14914 8.65833 3.82401
1 2.42212 8.1385 3.52349
1 -1.90462 -1.07796 -7.10456
1 -1.60443 -1.83161 -6.55554
1 -1.39276 -1.28184 -5.71789
1 -1.11508 -0.752001 -6.4802
1 -1.07889 -0.200457 -5.74283
1 -0.562488 -0.13884 -4.89728
1 0.120347 0.579443 -4.78131
1 0.487583 1.24224 -4.146
1 -0.0676247 1.76768 -3.57025
1 -0.416456 1.85884 -2.64065
1 -6.69901 -5.08492 6.19872
1 -6.75392 -4.14032 6.11817
1 -6.66293 -4.47494 5.20293
1 -7.34818 -4.51411 4.4823
1 -7.60167 -5.23957 5.07595
1 -8.57269 -5.22442 5.20044
1 -8.32425 -5.10335 4.30237
1 -7.57821 -5.51662 3.9144
1 -8.43478 -5.87939 3.6262
1 -9.1566 -5.78949 4.25459
1 3.09582 -3.87331 -3.50536
1 2.19097 -3.51894 -3.67631
1 2.69768 -3.75353 -4.47583
1 1.65901 -3.74853 -4.50683
1 0.91253 -4.39566 -4.63702
1 0.0180286 -4.16089 -4.30496
1 0.562668 -4.342 -3.5602
1 -0.0555471 -4.98035 -3.21232
1 -0.0956817 -4.53985 -2.29132
1 0.0411658 -3.61393 -2.09566
1 6.07718 -5.91981 5.04442
1 6.1597 -5.91363 6.04134
1 5.28307 -5.71953 6.33134
1 4.51754 -6.0474 5.87034
1 3.82918 -5.56402 6.20882
1 3.74277 -5.56079 5.25923
1 2.86745 -5.78482 5.53991
1 2.74744 -5.1251 4.88392
1 3.04384 -4.18862 4.72563
1 3.46521 -4.02126 3.78203
1 -4.9565 9.6541 -6.6399
1 -5.73925 9.4856 -6.12741
1 -6.73552 9.32109 -6.0443
1 -7.2086 8.42782 -6.12876
1 -7.7237 9.09141 -6.55457
1 -8.67444 8.67153 -6.72512
1 -9.23012 7.8791 -6.46447
1 -9.75272 7.11123 -6.53704
1 -8.98131 6.98869 -5.95055
1 -8.13141 7.24957 -5.69516
1 -7.26653 -3.3597 0.672827
1 -6.33733 -3.50241 0.976264
1 -6.26775 -3.69333 1.95338
1 -6.21542 -4.22901 2.75021
1 -6.76404 -4.93776 3.18677
1 -7.6027 -4.80829 2.78435
1 -7.91011 -4.00607 2.46593
1 -7.52149 -3.8182 1.55679
1 -7.63172 -4.62863 0.859787
1 -7.88788 -4.02372 0.134728
1 -5.12554 -3.37542 6.78131
1 -5.60287 -4.11469 6.25175
1 -5.62593 -4.98312 6.51038
1 -5.7132 -5.00445 5.55982
1 -5.41615 -5.80774 5.92865
1 -6.25557 -6.07158 5.4697
1 -6.71782 -6.25531 6.31789
1 -7.28374 -5.69261 6.84919
1 -7.7241 -4.81504 6.60236
1 -7.96992 -4.60462 5.72898
1 8.89719 1.14393 5.69942
1 8.18539 1.74305 5.51669
1 7.21878 1.7782 5.456
1 6.72753 2.70129 5.27007
1 7.64836 2.92151 5.18934
1 8.29965 2.3999 4.68984
1 8.71483 2.76443 5.5248
1 9.69703 2.68058 5.43852
1 9.20778 1.95479 5.08198
1 9.78024 1.23567 5.06708
1 1.2823 -8.61877 9.40819
1 1.99087 -7.88646 9.14927
1 1.83491 -8.33161 8.31157
1 1.97224 -7.42962 8.15571
1 2.13549 -7.19361 7.26224
1 1.89915 -6.71118 6.39876
1 2.74678 -6.32245 6.5485
1 2.78884 -6.3284 7.53781
1 3.52987 -6.66123 8.06318
1 3.14844 -6.22205 8.80372
1 -9.23543 -4.24558 -2.50014
1 -9.63768 -3.95652 -3.3768
1 -10.1943 -3.83095 -2.61621
1 -10.6045 -4.52553 -2.07606
1 10.2095 -3.65705 -1.91308
1 -10.2439 -3.37079 -1.62962
1 10.595 -2.55629 -1.74618
1 10.417 -1.68278 -1.99423
1 -10.1904 -1.40755 -1.41825
1 -10.0303 -0.516038 -1.17036
1 -1.77055 -8.37224 6.6125
1 -0.977765 -8.88762 6.92625
1 -1.08676 -9.59895 6.33077
1 -1.2983 -10.5581 6.31048
1 -2.09043 10.2624 6.26293
1 -2.41915 -10.2939 6.75837
1 -2.23018 -9.38845 6.6438
1 -2.02302 -9.88463 5.79562
1 -2.93411 -10.2447 5.88283
1 -3.09432 10.6034 5.06271
1 -4.58539 -3.61954 -9.32328
1 -4.8486 -2.68884 -9.36484
1 -4.3382 -2.40076 -8.64342
1 -4.63596 -1.4193 -8.64863
1 -4.54182 -0.479871 -8.72617
1 -4.32491 -0.245498 -7.78574
1 -3.85213 0.465523 -7.34687
1 -3.31642 0.42566 -8.11483
1 -3.46447 -0.409328 -8.60791
1 -3.27503 -0.232681 -9.55843
1 5.94095 -4.87441 7.77775
1 5.92039 -5.61874 7.16259
1 5.15406 -5.58699 7.67877
1 4.7063 -5.71832 8.57182
1 5.6748 -5.56304 8.69652
1 5.39363 -6.33463 9.1543
1 5.75055 -7.02059 9.81047
1 5.27145 -6.78443 -10.6501
1 4.78175 -7.52033 10.3065
1 4.78382 -7.67592 -10.0118
1 -5.76975 -4.4081 10.2341
1 -5.51914 -5.35867 10.1112
1 -5.14647 -4.80436 9.46313
1 -4.66307 -4.68179 10.3318
1 -3.78066 -4.76993 10.6536
1 -2.91331 -4.52775 -10.37
1 -3.00597 -5.48785 -10.5375
1 -2.12088 -5.2106 -10.2492
1 -1.65171 -5.22765 -9.43749
1 -2.22612 -5.26371 -8.58504
1 -5.84593 4.61552 4.10542
1 -6.02764 3.70518 4.20304
1 -6.86106 3.76598 4.62283
1 -6.91996 4.68157 4.81782
1 -6.92999 5.16124 3.89703
1 -7.85766 5.06852 4.19493
1 -8.58663 5.77649 3.92679
1 -9.24089 5.43129 4.60508
1 -9.64621 5.06374 3.79001
1 -8.84132 4.55915 3.88881
1 -3.54136 -0.893209 1.88923
1 -3.99532 -1.67418 1.57085
1 -4.94297 -1.77892 2.00267
1 -5.83246 -2.07059 1.97902
1 -6.1073 -1.9484 1.05951
1 -6.4653 -2.54236 0.422327
1 -5.66798 -2.14456 0.19292
1 -6.4635 -1.89833 -0.303656
1 -7.09162 -1.22773 -0.00281806
1 -7.34674 -0.637439 0.672602
1 -10.5016 0.327417 6.98997
1 -10.48 1.21005 6.63654
1 10.2661 1.86276 7.14397
1 -10.5458 1.70023 7.96079
1 -10.0937 2.4925 8.16529
1 -9.56295 1.75875 8.43739
1 -8.9159 1.42156 9.01265
1 -8.71048 1.2323 8.11654
1 -8.43176 2.05453 7.74418
1 -8.34774 2.85824 7.26765
1 -3.90675 -7.36934 -2.9977
1 -3.40737 -6.57745 -2.69329
1 -2.97643 -5.95498 -3.40064
1 -2.11477 -6.20632 -3.70378
1 -1.44729 -5.98914 -3.05211
1 -0.511652 -5.98315 -3.42062
1 -0.615548 -6.50661 -2.65648
1 0.22621 -6.16839 -2.46107
1 0.872096 -6.89554 -2.18624
1 1.40475 -7.07197 -2.99877
1 10.0548 -7.22759 1.53129
1 9.97977 -8.14206 1.77817
1 -10.5516 -8.48002 2.25269
1 10.5163 -7.6751 2.71612
1 9.95836 -8.44813 2.94308
1 9.32856 -7.79687 2.6029
1 9.11312 -7.16101 1.98758
1 9.00102 -7.31978 1.04912
1 9.0954 -8.29629 0.845757
1 9.86264 -7.85611 0.704524
1 10.4391 2.4425 -10.4056
1 10.0454 3.32826 -10.3908
1 10.149 3.022 9.96128
1 10.6364 2.98247 9.14715
1 -10.249 3.62073 9.69849
1 -9.44012 3.13279 10.0692
1 -10.1912 2.43639 10.0902
1 -9.69094 2.421 -10.3231
1 -9.57618 1.51081 -9.97103
1 -10.4813 1.63447 -9.68636
1 1.04818 6.05163 7.06992
1 1.97853 5.92516 7.22683
1 2.70978 5.83545 7.90242
1 3.25296 6.16638 8.61156
1 2.88303 7.12802 8.59789
1 3.58008 7.59525 9.01364
1 4.00155 7.62659 9.91671
1 4.49856 7.70311 -10.5632
1 4.77819 6.96563 10.2239
1 5.71878 7.0433 10.2396
1 -7.20131 -1.09792 -9.35601
1 -7.75139 -1.03731 -10.0999
1 -8.66954 -0.645545 -10.0871
1 -8.21464 -0.0750251 -9.50272
1 -8.37891 0.871866 -9.55642
1 -8.22587 1.06687 -10.467
1 -8.02878 0.168512 10.5031
1 -7.51178 0.885888 10.0767
1 -7.7087 0.551152 9.24811
1 -8.0446 0.555587 8.37308
1 -8.84038 -5.52072 -2.83552
1 -8.73094 -5.23246 -1.9614
1 -9.11831 -5.33973 -1.04942
1 -9.63184 -4.68205 -1.45077
1 -9.36568 -4.09018 -0.720825
1 -9.37552 -4.30238 0.161589
1 -9.26441 -5.23755 -0.041112
1 -9.41496 -6.16672 -0.249963
1 -10.1082 -6.26583 -1.00661
1 10.6083 -6.35368 -0.283034
1 3.47326 -1.92229 -2.41003
1 2.7512 -2.23278 -2.99714
1 3.25176 -1.49592 -3.40825
1 3.45318 -0.520255 -3.28693
1 2.78563 0.116767 -3.11157
1 2.08753 0.14645 -3.74585
1 2.62303 0.735532 -4.37067
1 1.76007 1.13152 -4.54462
1 2.20489 1.19245 -5.36031
1 3.06555 1.28399 -5.7732
1 4.80198 2.01936 8.84764
1 4.42553 2.66401 9.4977
1 4.71379 2.1751 10.2069
1 4.46432 1.8643 -10.1832
1 3.633 1.93725 -9.68401
1 3.95703 1.86629 -8.81319
1 3.56753 2.71646 -8.728
1 3.81683 2.9263 -7.81864
1 4.67024 2.90513 -8.42181
1 4.99592 2.26614 -9.10287
1 7.6264 8.01611 9.27109
1 7.34768 8.54744 10.0308
1 7.22697 9.11432 -10.4878
1 6.52957 9.74798 -10.2685
1 7.06411 9.99936 10.2582
1 7.33126 10.4474 -10.2516
1 7.95528 -10.1244 -10.308
1 8.57619 -10.1782 10.3246
1 7.71742 -10.617 10.097
1 7.12166 -9.91212 9.96862
1 3.68187 8.58327 -7.33119
1 2.93552 8.70812 -6.82888
1 2.28172 9.23948 -7.30499
1 1.96993 8.96417 -6.45453
1 2.62761 9.3715 -5.93492
1 2.41944 10.0999 -6.57543
1 3.3459 10.0794 -6.46471
1 3.5874 9.69855 -7.38322
1 4.08114 9.35796 -6.67672
1 4.29125 8.68417 -6.02301
1 2.69757 -10.146 2.11198
1 3.40179 -10.0663 2.70368
1 3.86199 -9.41673 3.26741
1 4.29357 -9.87812 4.01144
1 3.82449 -10.1053 4.76151
1 3.03495 -9.80316 5.09661
1 3.20964 -9.12784 4.44336
1 2.61662 -8.40232 4.20922
1 1.64976 -8.38884 4.29535
1 1.44841 -7.512 4.63749
1 8.58717 -1.96851 5.89871
1 8.86273 -1.51334 6.70274
1 8.93525 -1.02331 5.92182
1 9.30126 -1.22537 5.08332
1 8.94719 -1.27448 4.18192
1 9.51195 -0.515668 3.94341
1 9.0038 -0.56022 3.11487
1 9.25172 -0.427838 2.1883
1 9.6892 0.430328 2.2067
1 10.4042 -0.145914 1.75851
1 -8.86841 -6.37069 -10.6503
1 -8.27761 -5.96223 10.0213
1 -7.94516 -5.14895 10.5805
1 -8.4644 -4.66612 9.90586
1 -8.80521 -3.88148 9.46539
1 -9.71557 -4.22603 9.34602
1 -9.95009 -5.17152 9.47956
1 -9.7307 -5.99392 9.10682
1 -8.87093 -5.57148 9.15146
1 -8.41552 -6.12059 8.45581
1 4.76645 4.48798 5.25634
1 5.25442 5.1267 4.73393
1 5.34905 5.3789 3.81438
1 6.0457 5.81365 4.35685
1 5.82086 6.38797 3.62287
1 6.4779 6.09658 3.02995
1 6.55045 7.06481 3.23167
1 5.78951 6.99971 2.65138
1 5.66673 6.59237 1.6909
1 5.41344 7.34589 1.12529
1 0.176349 4.59672 -2.34321
1 -0.627379 4.00285 -2.52352
1 -0.620712 4.40522 -3.4586
1 -0.55319 5.35925 -3.51084
1 -0.652706 5.11467 -2.58616
1 -0.728087 4.88874 -1.693
1 -0.0269204 4.56656 -1.1001
1 0.151906 3.82434 -1.71316
1 -0.00205675 3.49104 -0.84489
1 -0.755707 4.04535 -0.631797
1 0.413524 9.63063 -5.33074
1 1.09498 10.3065 -5.1963
1 1.1031 10.3778 -6.16569
1 0.153517 10.5295 -5.91371
1 0.251899 10.6326 -6.92116
1 0.0104258 9.79616 -6.61963
1 -0.0419391 8.90267 -6.82766
1 0.373167 8.51904 -7.63218
1 0.711667 9.45357 -7.53338
1 1.48179 9.79671 -7.03207
1 -8.81228 3.7533 -7.50632
1 -8.21572 4.50357 -7.32741
1 -8.60922 5.36283 -7.68746
1 -9.06462 5.74864 -8.4744
1 -9.94043 5.28265 -8.63023
1 -10.0583 6.13412 -8.243
1 10.3212 6.17081 -8.42809
1 10.2093 7.08831 -8.76947
1 -10.4864 6.71186 -9.38992
1 -9.68613 6.8937 -8.84186
1 -5.34564 -8.07088 -5.91282
1 -6.13664 -8.08972 -5.31408
1 -5.32311 -8.32044 -4.92148
1 -5.3949 -8.27867 -3.96639
1 -6.29625 -8.51028 -4.36774
1 -6.12214 -7.55489 -4.21251
1 -6.17508 -6.66116 -4.55135
1 -6.90508 -6.06607 -4.40396
1 -6.17221 -5.58399 -3.95384
1 -5.54471 -6.28532 -3.75404
1 -2.44592 -3.79159 0.335442
1 -3.09533 -4.44027 0.225789
1 -3.34225 -4.97021 1.01551
1 -2.39606 -4.971 1.03874
1 -1.88951 -5.66482 1.50038
1 -2.14794 -6.40218 0.933769
1 -2.8415 -5.86744 0.428107
1 -2.0865 -5.98881 -0.139672
1 -2.84474 -6.5705 -0.484208
1 -2.97383 -7.0129 0.360225
1 -8.2363 -10.2702 -0.451089
1 -7.31204 -10.2786 -0.6982
1 -6.97012 10.6447 0.117947
1 -6.94323 -9.77704 0.526631
1 -6.18516 -10.0352 -0.0588866
1 -5.49889 -9.42373 0.00586334
1 -5.13777 -10.0609 -0.645629
1 -5.52977 10.4069 -0.282134
1 -5.71058 9.91792 0.560218
1 -5.62104 10.2947 1.39994
1 9.08968 -9.80241 4.97288
1 9.46551 -10.2759 5.74362
1 8.98072 -9.49986 6.06822
1 9.60067 -9.55742 6.81614
1 9.10323 -8.75934 7.15958
1 9.13759 -9.16777 8.08054
1 10.0817 -8.91135 7.93854
1 -10.6092 -8.16715 7.97176
1 -10.0537 -7.4966 8.29986
1 -9.3649 -6.83105 8.42539
1 -5.768 8.901 -7.0113
1 -5.85296 9.76601 -7.45403
1 -4.98841 9.66667 -7.75628
1 -4.57147 8.73735 -7.62657
1 -3.70163 8.9842 -7.9013
1 -4.06158 9.55426 -7.16321
1 -3.3755 8.97268 -6.89015
1 -3.96747 8.20055 -6.99848
1 -4.53494 8.58656 -6.3418
1 -4.34383 8.58582 -5.36267
1 -6.86959 -4.54577 -6.75669
1 -6.98406 -3.62916 -6.72818
1 -7.02128 -2.73098 -7.02114
1 -7.15214 -2.72119 -7.9788
1 -6.85274 -1.91892 -8.52643
1 -7.36644 -1.11366 -8.32575
1 -7.13323 -0.175229 -8.46839
1 -7.65179 0.0833099 -7.63639
1 -7.97735 0.443065 -6.82796
1 -7.57308 -0.384065 -6.48915
1 -3.4099 3.7385 7.40472
1 -3.97272 3.23508 7.89057
1 -4.877 3.46728 7.84745
1 -4.68532 3.12242 8.69667
1 -5.51289 2.93769 9.19795
1 -6.35515 2.51835 9.31238
1 -6.76867 1.95908 8.58914
1 -7.57219 2.50051 8.33517
1 -7.27065 3.22949 9.09879
1 -7.34521 4.10038 8.58557
1 -10.1365 -8.985 7.53092
1 -9.18608 -8.89824 7.79219
1 -9.32715 -9.73296 7.38894
1 -8.49536 -10.1053 7.38406
1 -7.56759 -10.1893 7.38456
1 -7.67974 -9.3038 7.04697
1 -8.23431 -8.49754 6.92757
1 -7.68526 -8.35346 7.69886
1 -8.15552 -9.15572 8.07015
1 -7.99835 -10.0709 8.44278
1 1.87497 -2.42714 -10.4163
1 2.36625 -1.55655 -10.2367
1 3.23257 -1.98047 -10.4165
1 3.71884 -2.59611 -9.90099
1 3.08514 -2.16485 -9.3199
1 2.654 -2.83557 -9.79098
1 1.98864 -2.96187 -9.02182
1 2.87422 -3.28231 -8.5779
1 3.43773 -3.73362 -9.33586
1 4.31919 -3.30966 -9.21163
1 -6.67743 8.879 -2.87387
1 -6.54039 9.52988 -3.5282
1 -7.11571 9.89961 -2.81818
1 -7.76439 9.35601 -3.17387
1 -7.86083 8.4489 -2.89687
1 -8.0813 7.65936 -2.49488
1 -7.12259 7.38986 -2.79926
1 -7.64718 6.57814 -2.74746
1 -7.81861 6.82314 -1.83108
1 -8.39034 6.02875 -2.00048
1 9.1404 -6.6907 7.32576
1 9.25545 -7.61477 7.56851
1 8.4993 -8.22745 7.84012
1 8.03088 -9.07208 8.03548
1 8.47273 -9.63266 7.33544
1 8.07495 -9.81092 6.48455
1 7.46604 -10.3634 5.97431
1 6.94867 -10.2057 6.78701
1 6.51454 -9.76687 6.06279
1 6.65583 10.4742 6.0124
1 -0.247162 -1.2 -4.47626
1 0.372698 -0.547509 -4.84224
1 0.376527 -0.261342 -3.96788
1 0.670978 0.372939 -3.37547
1 -0.201617 0.704014 -3.64312
1 -0.624051 -0.12187 -3.90123
1 -0.371188 -0.91407 -3.36255
1 0.156287 -0.450674 -2.69139
1 0.972034 -0.0665819 -2.35338
1 0.577703 0.379167 -1.5993
1 8.24321 -9.98689 -4.41803
1 8.1524 -9.18785 -4.92875
1 7.65591 -8.30661 -5.00343
1 8.09992 -7.43734 -4.75224
1 8.60342 -8.20758 -4.4873
1 8.31341 -7.73946 -3.70475
1 8.22824 -7.07565 -2.99754
1 8.12536 -6.77428 -2.03187
1 7.66343 -5.95945 -2.23137
1 8.5469 -5.74126 -2.48839
1 5.03681 7.93707 -2.99956
1 5.50465 7.92546 -3.80457
1 5.71612 8.39028 -4.6205
1 5.07976 8.84738 -5.11061
1 5.45065 9.4476 -4.54171
1 5.94167 10.3175 -4.47457
1 6.81872 10.0612 -4.36022
1 6.31345 9.56987 -5.08663
1 7.06644 9.03263 -4.95231
1 7.6933 9.3898 -4.28244
1 -3.72297 8.65174 -2.94785
1 -4.26801 8.37295 -2.24238
1 -4.34836 7.64254 -2.79563
1 -5.08134 7.04173 -2.73661
1 -5.13392 7.2386 -1.77652
1 -4.31598 6.78871 -2.07964
1 -3.55489 6.20825 -2.01959
1 -3.50596 5.7622 -2.79316
1 -4.26883 6.26384 -3.0351
1 -4.91342 5.96569 -2.37523
1 -0.251885 -6.76864 0.956566
1 -1.06267 -7.11764 0.66532
1 -1.78017 -6.96755 0.0899227
1 -2.15746 -7.43225 0.822265
1 -1.43315 -7.98704 1.07742
1 -1.84359 -7.70579 1.91199
1 -0.864717 -7.57426 2.02576
1 -1.06479 -7.83442 2.94584
1 -0.401041 -7.1332 2.87476
1 -0.0566712 -6.62638 2.11236
1 -2.30947 -1.66213 9.3769
1 -2.72205 -0.967069 9.9008
1 -2.11051 -0.2978 10.1916
1 -1.97088 0.664657 10.3204
1 -1.62818 0.478105 9.45114
1 -0.744637 0.455029 8.92245
1 -0.919307 1.21021 9.52247
1 -1.71578 1.61716 9.03659
1 -0.987366 1.4853 8.43987
1 -0.822672 2.27186 8.90295
1 2.56764 2.61983 8.97391
1 2.40302 1.7614 8.56763
1 2.31252 1.72795 9.51558
1 2.64023 2.4993 10.0114
1 2.50392 3.00997 -10.4144
1 2.18991 3.40726 10.1527
1 1.73451 3.94199 -10.4868
1 0.883978 3.61536 -10.648
1 0.849028 3.81889 -9.68573
1 1.85187 3.61235 -9.5186
1 1.47095 -0.566991 -4.03568
1 1.88443 -0.139057 -4.81775
1 2.79376 -0.0530286 -5.27279
1 3.31685 0.300661 -6.05277
1 2.40913 0.574646 -6.29838
1 1.53443 0.346284 -5.89339
1 1.78847 -0.528298 -6.17593
1 2.55068 -1.14997 -6.01935
1 2.74719 -1.76507 -5.31612
1 2.12912 -1.09718 -5.13271
1 10.4062 -6.2709 1.11368
1 -9.92387 -5.89467 1.13433
1 -10.2538 -5.38755 0.308292
1 -10.2748 -4.96662 -0.566935
1 -10.4961 -4.11659 -0.905618
1 -10.2203 -3.29986 -0.558512
1 -9.40161 -2.96167 -0.145018
1 -9.70447 -2.09121 -0.531435
1 -9.06031 -1.49888 -0.937038
1 -9.41119 -0.722056 -0.459785
1 -6.65754 0.366579 5.96897
1 -7.04101 1.08269 5.41962
1 -7.71044 0.641596 4.91647
1 -7.61422 -0.108295 5.53109
1 -8.27027 0.165263 6.28822
1 -7.99125 1.04096 5.96874
1 -8.65812 1.60851 5.52407
1 -7.93897 2.17345 5.71259
1 -8.09908 2.92855 6.29536
1 -8.94991 2.66514 6.01693
1 8.68527 -5.03939 9.11589
1 8.89817 -5.43592 9.9086
1 8.60302 -5.89579 -10.5938
1 8.48613 -6.82669 -10.5357
1 8.34602 -6.28857 -9.69443
1 7.87705 -6.82628 -9.04947
1 7.15897 -6.20451 -8.70128
1 7.12957 -5.35448 -9.21063
1 7.26231 -6.14829 -9.80844
1 7.05321 -6.26457 10.5521
1 7.7568 9.10635 -7.73834
1 7.10963 9.49991 -7.08275
1 7.82817 9.34054 -6.5343
1 7.87135 8.80427 -5.79643
1 8.68694 8.43854 -5.47877
1 9.06596 9.22729 -5.11121
1 9.68482 9.16269 -4.39317
1 9.23141 8.27588 -4.50491
1 10.0595 8.06382 -4.78346
1 10.3816 8.84556 -5.27935
1 -3.65161 2.22248 -4.72089
1 -4.10859 1.72972 -4.08035
1 -4.99381 1.52651 -4.29012
1 -4.44019 0.860311 -4.7283
1 -4.40543 1.62138 -5.36792
1 -3.52566 1.33813 -5.3723
1 -3.71333 1.43174 -6.36069
1 -3.19581 2.06978 -6.84959
1 -4.15284 2.16371 -6.86773
1 -3.80209 2.77696 -6.16043
1 -5.02319 -4.92645 2.15417
1 -5.8001 -5.29259 1.72899
1 -6.65007 -4.86883 2.01555
1 -7.01261 -5.48653 1.28961
1 -6.89853 -5.8904 0.442469
1 -6.94474 -6.70411 -0.148582
1 -6.75753 -7.61865 -0.378838
1 -5.91311 -8.02894 -0.345222
1 -4.98651 -8.41722 -0.427472
1 -4.07444 -8.39367 -0.667015
1 -2.7091 1.42194 5.38956
1 -2.42187 0.528967 5.69561
1 -2.6628 -0.277386 5.27122
1 -2.66243 -0.476872 6.19752
1 -2.28865 0.00414595 6.98584
1 -2.76064 0.836997 6.66047
1 -3.37553 0.840801 7.3907
1 -2.67079 0.925475 8.04371
1 -3.39942 1.35656 8.51171
1 -2.72582 1.83394 8.95192
1 -1.19281 10.4389 4.52735
1 -1.18678 9.52607 4.359
1 -0.342915 9.91856 4.26196
1 0.624011 9.75537 4.08189
1 1.08955 10.3115 4.76324
1 0.531456 -10.3038 4.51735
1 0.0849423 -9.61478 5.042
1 -0.43725 -9.5699 4.17866
1 -0.131042 -8.70742 3.79634
1 0.0970667 -8.68207 4.77177
1 -6.1481 -2.66597 8.4155
1 -6.981 -3.04656 8.15264
1 -7.59432 -3.82288 8.11544
1 -6.92581 -3.83384 7.4084
1 -6.61804 -4.48221 8.06391
1 -6.23174 -3.69377 8.40755
1 -5.51515 -3.39656 7.86306
1 -6.11092 -3.46243 7.10882
1 -5.84404 -4.30729 7.36974
1 -6.39202 -5.05699 7.16238
1 10.5227 -7.77541 3.80397
1 9.65466 -7.45337 3.48366
1 9.28865 -6.70088 3.93284
1 9.01134 -6.70335 3.05261
1 8.19405 -6.75661 2.45753
1 7.53729 -7.19686 2.9827
1 7.74217 -8.12206 3.31227
1 8.19954 -7.82871 2.50175
1 8.53066 -7.59094 3.41599
1 9.09188 -8.31685 3.51918
1 7.79721 5.44579 -6.793
1 8.11608 4.63656 -6.395
1 7.34298 4.63182 -5.77928
1 6.78131 5.06342 -6.43397
1 6.81519 5.92877 -6.86079
1 7.2813 5.96358 -6.04417
1 6.6362 5.4476 -5.51172
1 5.86718 5.78884 -5.90059
1 5.69666 6.69418 -5.60015
1 4.88812 6.61733 -5.09743
1 -2.30881 -9.05971 10.2549
1 -2.38352 -9.11975 -10.0327
1 -1.73313 -8.51591 -10.411
1 -1.06161 -7.8736 -10.0789
1 -1.77042 -7.31641 -9.95282
1 -1.93691 -6.31716 -9.76799
1 -1.32568 -5.94124 -10.4533
1 -0.958915 -6.18357 -9.51398
1 -0.187212 -5.94616 -10.0498
1 0.254142 -5.13645 -10.2603
1 2.75965 2.71464 2.66723
1 2.02482 2.20641 2.26542
1 2.05586 1.46578 1.67354
1 2.2534 0.618285 1.34087
1 2.08485 1.0191 0.46385
1 2.92876 0.703461 0.197498
1 3.82837 0.901978 -0.154909
1 3.70974 1.75334 -0.620074
1 2.78957 1.77665 -0.698863
1 1.93956 1.19687 -0.613877
1 2.02983 -0.261611 7.47242
1 1.32858 -0.61138 8.02034
1 2.0143 -1.24182 8.00279
1 1.69611 -1.22865 8.92034
1 1.38513 -0.369019 9.05875
1 1.33589 -0.785473 9.85421
1 1.97073 -0.0742952 10.0184
1 2.85971 0.0709449 10.2344
1 2.62635 0.528945 9.37838
1 3.6028 0.0587811 9.41645
1 2.99501 -6.09758 -8.64674
1 2.52015 -6.85559 -8.33943
1 2.05297 -6.56341 -7.53184
1 1.43308 -5.83073 -7.50939
1 1.69348 -4.84598 -7.52282
1 0.766681 -4.96906 -7.74927
1 0.323853 -5.54071 -7.11828
1 0.0266164 -6.20701 -7.73494
1 -0.344765 -5.31755 -7.87656
1 0.0820279 -5.70356 -8.63317
1 5.81302 -0.444067 8.40233
1 5.63352 -1.41719 8.45157
1 5.14433 -1.4811 7.61819
1 5.65755 -1.22894 6.8132
1 6.1866 -1.93211 7.25802
1 6.18796 -2.79339 7.59167
1 6.96445 -2.62293 8.22367
1 7.24185 -3.17886 7.48769
1 6.85951 -2.64157 6.69296
1 6.03477 -3.02018 6.51454
1 -8.51598 3.09322 -8.88024
1 -8.1576 3.39656 -9.68291
1 -9.15974 3.32757 -9.84275
1 -9.92043 2.96527 -9.51346
1 -9.75531 3.86545 -9.24006
1 -10.2875 3.91423 -10.0682
1 10.242 4.42335 -10.2227
1 10.6495 4.82273 -9.40976
1 -10.3763 4.37646 -8.60749
1 10.2773 5.05325 -8.50221
1 -9.762 8.995 -6.78557
1 -10.1906 8.46966 -7.38519
1 10.5537 9.25467 -7.0991
1 -10.2246 9.99923 -6.69129
1 -10.1148 9.84535 -7.61203
1 -9.17534 10.1978 -7.72421
1 -8.76712 -10.3078 -7.45906
1 -8.75024 -10.5901 -8.45866
1 -8.05432 -10.515 -9.08367
1 -7.20711 -10.0895 -9.3266
1 1.64216 8.04046 -4.30879
1 2.61376 7.94199 -4.44966
1 2.2895 7.71443 -3.51985
1 1.8225 7.35167 -2.76168
1 1.94637 6.6721 -3.43874
1 2.01866 5.93131 -2.84712
1 1.41779 5.17984 -2.98306