LAMMPS
     8000   atoms
     7200   bonds
     320   angles
     0   dihedrals
     0   impropers
     2   atom types
     1   bond types
     1   angle types
     0   dihedral types
     0   improper types

-10.000000 10.000000   xlo xhi
-10.000000 10.000000   ylo yhi
-10.000000 10.000000   zlo zhi

Masses

1 1.000000
2 1.000000

Atoms

1 1 1 1.808138 8.552811 -3.920247
2 1 1 2.378814 8.643194 -4.693798
3 1 1 1.558151 8.802928 -5.169968
4 1 1 0.646846 8.798185 -5.438705
5 1 1 0.872933 7.917705 -5.610586
6 1 1 1.128385 7.206124 -5.03503
7 1 1 1.08229 8.015875 -4.528357
8 1 1 0.479555 8.714798 -4.372804
9 1 1 -0.007426 8.020002 -4.829549
10 1 1 -0.153978 7.889732 -3.891538
11 2 1 -0.167963 6.979374 -3.59368
12 2 1 0.301351 7.464631 -2.93302
13 2 1 0.512695 8.231094 -2.383041
14 2 1 1.333485 8.307327 -1.845298
15 2 1 1.41392 7.936456 -0.973725
16 2 1 1.161349 8.809135 -0.615972
17 2 1 0.583342 8.243214 -0.162003
18 2 1 0.524207 7.401052 -0.63242
19 2 1 -0.240351 7.859991 -0.951422
20 2 1 0.40496 8.443034 -1.358801
21 3 1 7.20559 -9.149301 -6.885516
22 3 1 6.530702 -8.499777 -7.182451
23 3 1 5.851049 -8.627442 -6.494233
24 3 1 5.757168 -7.813728 -6.95501
25 3 1 5.800755 -6.936424 -7.399225
26 3 1 5.988945 -7.700061 -8.019948
27 3 1 5.710351 -8.588668 -7.857396
28 3 1 4.889762 -8.589211 -7.390659
29 3 1 5.002852 -9.29913 -6.743381
30 3 1 4.614242 9.87236 -6.941894
31 4 1 3.90798 -9.775431 -7.48938
32 4 1 3.861183 -9.970151 -8.430909
33 4 1 4.487877 -9.289232 -8.25613
34 4 1 4.301024 -9.181848 -9.203842
35 4 1 3.458819 -8.749027 -8.954163
36 4 1 3.668364 -8.435818 -9.818586
37 4 1 3.381504 -7.703094 9.686063
38 4 1 2.595622 -7.150282 9.583896
39 4 1 1.745417 -6.719179 9.464058
40 4 1 1.318437 -5.915848 9.239603
41 5 1 1.996219 -7.264082 -4.452671
42 5 1 2.403104 -7.617664 -3.603349
43 5 1 1.668191 -7.849911 -3.047274
44 5 1 0.904815 -7.292023 -3.13395
45 5 1 0.839502 -6.344803 -3.266921
46 5 1 0.661299 -6.569674 -2.351337
47 5 1 -0.010402 -7.176401 -2.019237
48 5 1 0.081898 -7.921852 -2.627221
49 5 1 -0.192165 -7.123208 -3.086939
50 5 1 -0.011683 -7.747509 -3.804805
51 6 1 1.837544 -5.091415 8.912922
52 6 1 2.154599 -5.311725 8.034773
53 6 1 1.211411 -5.528623 8.114948
54 6 1 1.529381 -6.440325 8.308448
55 6 1 1.741743 -6.636365 7.413463
56 6 1 1.807071 -5.720472 7.083002
57 6 1 2.016753 -6.350872 6.375854
58 6 1 1.108942 -6.682432 6.541666
59 6 1 0.706827 -6.493066 7.44063
60 6 1 0.625884 -7.262761 8.034076
61 7 1 0.981229 -7.578567 7.226911
62 7 1 0.698759 -7.925962 6.368942
63 7 1 1.393822 -8.414033 5.969781
64 7 1 2.23683 -8.903418 6.076956
65 7 1 2.382867 -8.075626 5.634669
66 7 1 2.945334 -7.317584 5.804886
67 7 1 3.371519 -7.922179 5.174945
68 7 1 3.624938 -7.486039 4.36415
69 7 1 3.320961 -6.82103 4.95771
70 7 1 3.334726 -6.373292 4.115329
71 8 1 0.815584 8.799856 7.845946
72 8 1 0.902942 9.521867 7.226432
73 8 1 0.587226 -9.750865 6.716853
74 8 1 0.506359 -9.113194 6.018819
75 8 1 -0.395888 -8.843335 5.85168
76 8 1 -0.347698 -8.265717 6.629861
77 8 1 -0.039817 -7.813757 7.403946
78 8 1 -0.029904 -7.117041 6.734285
79 8 1 -0.264969 -6.778523 7.62087
80 8 1 -0.361918 -7.197623 8.490584
81 9 1 0.272056 -7.707909 8.942728
82 9 1 0.685621 -6.857288 9.146741
83 9 1 0.371814 -6.311772 8.450908
84 9 1 0.281031 -5.718978 9.18283
85 9 1 0.825993 -4.939474 9.15784
86 9 1 0.89386 -4.416101 9.969198
87 9 1 1.698045 -4.486445 -9.47113
88 9 1 2.271213 -4.641536 9.803439
89 9 1 1.943227 -5.520933 9.980029
90 9 1 2.561533 -5.205203 -9.341336
91 10 1 0.778466 -5.358629 4.039276
92 10 1 0.550716 -6.270589 3.908312
93 10 1 1.185792 -6.054391 3.243493
94 10 1 1.449389 -6.916368 3.541553
95 10 1 1.320992 -7.024039 4.495837
96 10 1 0.853947 -7.785866 4.228912
97 10 1 1.501646 -8.059724 4.892623
98 10 1 0.649514 -8.147516 5.290459
99 10 1 0.457939 -7.236382 5.393363
100 10 1 -0.254774 -7.822303 5.720391
101 11 1 -0.363924 -8.062667 4.824852
102 11 1 -0.084595 -7.243101 4.428577
103 11 1 -0.325001 -7.830283 3.72042
104 11 1 0.391833 -7.230171 3.442276
105 11 1 -0.411099 -6.716515 3.529467
106 11 1 -0.608472 -7.380201 2.854371
107 11 1 0.152766 -7.595438 2.317551
108 11 1 -0.218306 -6.791975 1.896467
109 11 1 0.22244 -6.538943 2.735122
110 11 1 -0.683942 -6.238741 2.653101
111 12 1 -2.383635 -5.302665 1.333261
112 12 1 -1.696402 -5.207638 2.031305
113 12 1 -1.965139 -6.109929 1.987111
114 12 1 -1.999355 -5.802586 2.906486
115 12 1 -1.334602 -5.619951 3.58958
116 12 1 -1.754268 -4.947909 4.172552
117 12 1 -1.251008 -5.4981 4.769865
118 12 1 -0.614426 -6.141256 4.488334
119 12 1 -0.453258 -6.583576 5.314286
120 12 1 0.202572 -6.262011 5.930483
121 13 1 0.616823 -5.667796 6.513601
122 13 1 1.392979 -5.22017 6.18397
123 13 1 2.067851 -5.584244 5.607988
124 13 1 1.267961 -6.124258 5.606886
125 13 1 0.539482 -6.067508 4.95064
126 13 1 0.564511 -5.31953 5.544593
127 13 1 -0.388218 -5.329516 5.333154
128 13 1 -0.88689 -5.873187 6.012167
129 13 1 -1.719346 -5.375496 5.851466
130 13 1 -1.189041 -4.608903 5.969488
131 14 1 6.755908 -0.749152 -8.243705
132 14 1 5.998355 -1.156955 -7.801192
133 14 1 6.618717 -1.78398 -8.236191
134 14 1 6.693574 -2.375671 -7.463396
135 14 1 5.792081 -2.158271 -7.650436
136 14 1 5.247481 -2.366886 -6.907299
137 14 1 5.254801 -2.019907 -6.020527
138 14 1 4.349539 -1.936654 -6.436467
139 14 1 3.761717 -2.221693 -7.126369
140 14 1 3.054541 -2.363723 -7.745114
141 15 1 2.832617 -3.239126 -8.078941
142 15 1 2.930909 -2.939144 -9.002081
143 15 1 3.616498 -3.478921 -9.433889
144 15 1 2.977366 -3.111689 9.918206
145 15 1 2.988387 -3.928061 9.449939
146 15 1 2.208146 -4.065615 8.945079
147 15 1 1.291691 -3.775013 9.011734
148 15 1 1.287493 -4.430871 8.311574
149 15 1 0.406691 -4.752454 8.195009
150 15 1 0.214237 -4.033931 8.776399
151 16 1 1.279601 -1.493199 7.172794
152 16 1 1.527785 -1.534652 6.267187
153 16 1 1.445697 -2.416463 6.54741
154 16 1 0.554072 -2.505269 6.217492
155 16 1 0.297717 -2.148196 7.070658
156 16 1 1.018773 -2.597418 7.485859
157 16 1 0.74905 -1.880292 8.064485
158 16 1 0.99545 -1.809452 9.018191
159 16 1 0.372525 -1.500063 9.683648
160 16 1 1.284281 -1.364781 9.961877
161 17 1 1.672748 -1.862859 -9.309403
162 17 1 1.161581 -2.535746 -8.90414
163 17 1 0.461036 -2.63065 -8.242792
164 17 1 1.217899 -2.224884 -7.770688
165 17 1 1.181785 -1.496631 -8.404666
166 17 1 1.54761 -0.763861 -8.912968
167 17 1 1.379912 -0.312618 -9.756608
168 17 1 1.922292 0.456856 -9.466753
169 17 1 2.449832 -0.32955 -9.238718
170 17 1 2.891659 0.051351 9.995565
171 18 1 -1.41082 -3.898392 -7.061793
172 18 1 -1.678901 -3.077792 -6.628864
173 18 1 -1.031087 -2.784601 -7.266969
174 18 1 -0.713129 -1.936215 -7.573476
175 18 1 -0.294329 -1.847259 -8.467481
176 18 1 -0.522667 -1.359595 -9.241239
177 18 1 -0.723729 -0.568727 -8.643528
178 18 1 -0.236294 0.04639 -9.245592
179 18 1 -0.646479 -0.463611 -9.947556
180 18 1 -0.540421 -0.572912 9.092987
181 19 1 -0.45138 0.23654 8.605911
182 19 1 -0.398955 -0.435452 7.949001
183 19 1 -0.307708 -1.395614 7.985475
184 19 1 -1.098897 -1.144669 7.528485
185 19 1 -0.782426 -1.984789 7.215269
186 19 1 -0.271257 -1.235179 6.933879
187 19 1 0.445408 -1.164218 6.303246
188 19 1 1.011536 -0.453517 6.488295
189 19 1 1.670749 0.166042 6.781795
190 19 1 1.9736 -0.676482 7.152566
191 20 1 -1.786657 4.48577 5.949077
192 20 1 -1.066706 3.899846 5.672953
193 20 1 -0.630837 3.072291 5.850207
194 20 1 -0.875019 2.288841 5.342046
195 20 1 -0.868074 2.557092 4.443347
196 20 1 -0.071941 2.179085 4.146438
197 20 1 -0.091107 1.682405 5.000572
198 20 1 0.104022 1.00064 4.359741
199 20 1 -0.451942 0.395986 4.896997
200 20 1 -1.075875 1.157144 4.914203
201 21 1 -1.181182 1.341778 5.845791
202 21 1 -0.607399 1.568629 6.54687
203 21 1 -0.19928 1.70069 7.393613
204 21 1 0.486093 1.514147 6.7739
205 21 1 0.656744 0.606426 6.525786
206 21 1 0.138615 1.0668 5.856559
207 21 1 0.827752 1.107857 5.208419
208 21 1 1.242778 0.311394 5.646813
209 21 1 1.547621 1.074829 6.10135
210 21 1 2.368411 1.032863 6.573137
211 22 1 1.231932 3.804628 3.076485
212 22 1 1.264365 2.882845 2.75031
213 22 1 0.528468 3.36767 2.430637
214 22 1 0.131713 3.872997 3.177317
215 22 1 -0.543464 3.326791 2.751447
216 22 1 -1.386153 2.924391 2.58421
217 22 1 -0.935609 2.172111 2.133143
218 22 1 -0.401522 1.537388 1.665199
219 22 1 0.139426 0.732906 1.470138
220 22 1 0.191975 -0.001656 2.082089
221 23 1 -0.439699 -0.740346 2.197515
222 23 1 0.027536 -0.66929 3.040989
223 23 1 -0.010728 0.317554 3.092038
224 23 1 0.500117 -0.103298 3.757642
225 23 1 0.107676 -0.914057 4.115252
226 23 1 -0.751056 -1.293032 3.877807
227 23 1 -0.333435 -1.909739 4.439675
228 23 1 0.148011 -1.985362 3.627337
229 23 1 -0.034193 -2.850397 4.017867
230 23 1 0.79799 -3.32359 4.036877
231 24 1 0.712948 -3.090538 1.213067
232 24 1 1.601112 -3.424685 0.997712
233 24 1 1.961067 -2.899451 0.304423
234 24 1 2.544182 -2.90288 1.049687
235 24 1 2.189968 -2.522729 1.894861
236 24 1 2.740627 -1.852425 1.494574
237 24 1 2.364993 -0.958515 1.459449
238 24 1 2.171549 -0.035843 1.754875
239 24 1 2.281861 0.220863 2.716657
240 24 1 2.182649 0.970248 2.147077
241 25 1 1.961651 1.018974 1.18885
242 25 1 2.689138 1.484063 0.76986
243 25 1 2.667268 2.415761 1.027013
244 25 1 2.087916 1.959442 1.638448
245 25 1 1.565293 1.825201 2.465948
246 25 1 1.813853 2.140785 3.343438
247 25 1 2.57171 1.618711 3.054131
248 25 1 3.439906 1.461388 3.496503
249 25 1 3.634262 0.852845 4.222977
250 25 1 2.734777 0.807168 3.851314
251 26 1 2.631696 -0.442131 -2.465085
252 26 1 2.105599 -0.921566 -1.858421
253 26 1 2.055014 -1.781536 -1.416354
254 26 1 1.119088 -1.919363 -1.638954
255 26 1 1.536369 -2.728982 -1.897559
256 26 1 0.602797 -2.808391 -1.662094
257 26 1 0.477977 -3.712168 -1.894406
258 26 1 0.915942 -4.394516 -1.391584
259 26 1 1.260174 -3.557951 -1.130524
260 26 1 1.657219 -2.746225 -0.779197
261 27 1 2.615733 -2.819323 -0.790183
262 27 1 2.351287 -3.480192 -1.457422
263 27 1 1.975132 -4.325766 -1.104678
264 27 1 2.009087 -3.680108 -0.3987
265 27 1 2.18961 -4.583758 -0.169663
266 27 1 1.50811 -4.475404 0.528426
267 27 1 1.128237 -4.348832 -0.359051
268 27 1 1.41051 -5.188443 -0.760979
269 27 1 0.945732 -6.042275 -0.658091
270 27 1 0.280708 -6.473473 -0.079911
271 28 1 -2.122183 1.559851 -8.303577
272 28 1 -1.745343 1.236921 -7.495655
273 28 1 -1.01754 1.728625 -7.16492
274 28 1 -0.728168 1.410923 -6.325914
275 28 1 -0.162299 0.644661 -6.469791
276 28 1 0.808198 0.731663 -6.440979
277 28 1 0.50602 0.613592 -7.363042
278 28 1 0.875624 1.045897 -8.118734
279 28 1 1.62265 0.867557 -7.56008
280 28 1 1.949101 0.842062 -6.678536
281 29 1 2.62753 1.480696 -6.453563
282 29 1 3.377445 1.971946 -6.141953
283 29 1 2.928946 1.727943 -5.323716
284 29 1 2.665155 1.999088 -4.421303
285 29 1 1.9303 1.516025 -4.838261
286 29 1 0.999353 1.363483 -4.826746
287 29 1 0.505445 0.791635 -5.385836
288 29 1 -0.443108 0.846128 -5.471156
289 29 1 -1.226214 0.449366 -5.884603
290 29 1 -1.197416 0.479059 -6.851987
291 30 1 2.88773 0.919591 -4.63677
292 30 1 2.602231 1.17151 -3.775468
293 30 1 3.479071 1.519162 -3.646785
294 30 1 3.70458 1.736975 -4.538439
295 30 1 4.10543 1.772019 -5.43224
296 30 1 4.816721 1.72875 -4.776252
297 30 1 4.351712 2.591687 -4.708868
298 30 1 3.483348 2.647658 -5.120894
299 30 1 2.661127 3.168168 -4.837534
300 30 1 2.123962 2.474385 -5.265267
301 31 1 2.762816 2.856821 -5.885803
302 31 1 3.308497 3.612189 -5.68718
303 31 1 3.939717 3.869969 -6.330339
304 31 1 3.334053 4.095148 -7.03383
305 31 1 2.811276 3.98963 -7.84472
306 31 1 3.604034 4.318332 -8.283943
307 31 1 2.942377 4.90792 -8.62454
308 31 1 2.416042 4.442107 -9.315344
309 31 1 1.960842 4.41825 -8.459778
310 31 1 1.972391 5.267394 -8.049575
311 32 1 0.935953 6.669148 -3.161095
312 32 1 0.391258 6.587763 -2.354491
313 32 1 1.296541 6.33795 -2.224994
314 32 1 1.630639 5.432163 -2.105468
315 32 1 1.967092 5.740123 -1.26282
316 32 1 1.47633 5.60388 -0.467442
317 32 1 0.911209 5.581218 0.306034
318 32 1 0.442112 5.384379 -0.492849
319 32 1 -0.01822 4.976874 0.249817
320 32 1 -0.121644 4.180828 0.77789
321 33 1 0.762818 4.518991 0.875296
322 33 1 1.069007 4.568751 -0.029004
323 33 1 1.832004 4.968834 0.387568
324 33 1 2.131693 4.153927 7.8e-05
325 33 1 3.036242 4.248773 -0.272626
326 33 1 3.331715 3.458325 0.201474
327 33 1 3.289213 2.471992 0.148675
328 33 1 3.684219 2.505219 -0.754581
329 33 1 4.229346 2.127057 -1.430816
330 33 1 4.972661 2.365577 -0.843704
331 34 1 1.398889 5.382467 3.716163
332 34 1 2.029169 5.958648 3.282335
333 34 1 2.243939 6.652187 2.655847
334 34 1 1.323338 6.661471 2.978198
335 34 1 1.108269 6.714764 2.038693
336 34 1 1.61157 7.530847 1.922347
337 34 1 1.419005 8.30758 1.348618
338 34 1 1.184778 8.851905 0.585154
339 34 1 1.926554 9.137915 0.047371
340 34 1 2.150151 9.212952 0.969801
341 35 1 1.444162 9.325466 1.655776
342 35 1 0.509159 9.529038 1.549473
343 35 1 0.286992 -9.627763 1.16827
344 35 1 1.117914 -9.255427 1.425828
345 35 1 0.490572 -8.605739 1.764134
346 35 1 -0.362486 -8.756213 1.33581
347 35 1 -0.299711 -8.921933 0.401291
348 35 1 0.494562 -8.46896 0.672796
349 35 1 1.279753 -8.170424 1.149013
350 35 1 1.211939 -7.925846 2.092516
351 36 1 -0.925002 7.932095 4.2146
352 36 1 -0.468573 8.273911 5.018082
353 36 1 -0.207968 8.165321 5.98092
354 36 1 -0.232909 7.222248 6.182118
355 36 1 0.143234 6.496665 6.741133
356 36 1 0.989942 5.984381 6.689007
357 36 1 1.132111 5.024811 6.634434
358 36 1 1.093759 4.604593 5.776686
359 36 1 1.321531 4.772805 4.834411
360 36 1 2.111158 4.305497 5.09787
361 37 1 2.340928 3.382899 4.947008
362 37 1 3.161933 3.862027 5.010266
363 37 1 3.94557 3.430512 5.402288
364 37 1 4.032521 4.385007 5.387317
365 37 1 3.558556 4.902731 4.65925
366 37 1 4.055721 5.727746 4.629126
367 37 1 3.512239 5.944558 5.407016
368 37 1 2.897875 6.122745 4.688355
369 37 1 2.415959 5.305454 4.446558
370 37 1 1.830112 6.071999 4.536445
371 38 1 4.597841 7.925816 -9.715936
372 38 1 4.255505 8.708884 9.851783
373 38 1 4.72167 9.084494 -9.381186
374 38 1 5.172415 9.338782 9.795592
375 38 1 5.562185 8.483263 -9.98653
376 38 1 5.606979 8.629088 9.060688
377 38 1 4.764634 9.023451 8.844329
378 38 1 4.451017 9.569331 8.167776
379 38 1 4.032517 -9.597032 8.504135
380 38 1 3.294756 -9.524551 9.081471
381 39 1 2.393739 -9.319803 8.67017
382 39 1 2.414483 -9.679398 7.772622
383 39 1 2.775778 -9.221682 7.02425
384 39 1 2.699661 9.895239 6.662564
385 39 1 3.071585 9.324573 7.333059
386 39 1 3.098346 8.744014 8.101976
387 39 1 3.227508 9.654388 8.349422
388 39 1 2.388218 9.595159 8.730646
389 39 1 1.582398 -9.986153 9.014203
390 39 1 1.350284 9.798222 8.143036
391 40 1 3.535744 8.20568 7.206645
392 40 1 4.196307 8.18021 6.537026
393 40 1 3.625863 7.539323 6.100794
394 40 1 3.627636 7.101437 6.944885
395 40 1 2.817339 7.545632 6.743373
396 40 1 2.472579 8.004173 7.522291
397 40 1 2.536022 8.577949 6.76064
398 40 1 3.290206 8.533052 6.174733
399 40 1 2.65602 8.036529 5.684493
400 40 1 2.090592 7.304626 5.897686
401 41 1 1.729666 7.519129 6.740782
402 41 1 1.973217 6.594506 6.678765
403 41 1 2.112777 7.013525 7.541183
404 41 1 1.163028 6.864963 7.310859
405 41 1 1.223202 6.927015 8.245101
406 41 1 0.685868 6.55869 8.913328
407 41 1 0.556206 5.657749 9.196031
408 41 1 1.341705 5.454971 9.73076
409 41 1 1.407837 6.212487 -9.71747
410 41 1 0.758721 6.665506 -9.177831
411 42 1 -0.011396 3.117674 4.905838
412 42 1 0.633376 3.136974 4.203482
413 42 1 1.024121 3.679801 4.938681
414 42 1 1.59289 3.583584 4.179255
415 42 1 2.222293 3.260816 3.534114
416 42 1 3.116722 3.423788 3.832729
417 42 1 2.804797 4.323195 4.055309
418 42 1 1.95244 4.412036 3.679948
419 42 1 1.85452 4.823427 2.820361
420 42 1 2.72982 5.019614 3.18604
421 43 1 3.259305 5.665184 3.686718
422 43 1 2.932473 6.558587 3.643921
423 43 1 2.034095 6.874424 3.841081
424 43 1 2.470686 7.643831 3.52655
425 43 1 1.555784 7.638039 3.195501
426 43 1 0.803618 8.250298 3.32004
427 43 1 0.694164 7.644712 2.608327
428 43 1 -0.216801 7.341896 2.43424
429 43 1 -1.083041 7.393861 2.855625
430 43 1 -1.013288 6.843161 3.63235
431 44 1 3.811339 9.366546 -1.924022
432 44 1 4.172889 8.595635 -1.479271
433 44 1 3.29396 8.339493 -1.215031
434 44 1 2.54813 8.713984 -0.704523
435 44 1 2.444363 7.761974 -0.566226
436 44 1 2.566297 7.34338 0.287071
437 44 1 3.220057 7.613733 0.952814
438 44 1 2.436992 7.974984 1.331843
439 44 1 2.283134 8.699889 1.96302
440 44 1 1.581989 8.442369 2.57031
441 45 1 0.68417 8.613654 2.259546
442 45 1 -0.161586 8.631193 1.814461
443 45 1 -0.954827 8.132523 2.114359
444 45 1 -0.664315 7.68905 1.339067
445 45 1 -0.748957 8.56732 0.930472
446 45 1 -1.315059 8.988305 1.575387
447 45 1 -0.512319 9.512127 1.395299
448 45 1 -0.840607 -9.686641 1.010848
449 45 1 -1.767754 -9.748662 0.995297
450 45 1 -2.29767 9.476556 0.895888
451 46 1 3.148465 6.033631 2.551567
452 46 1 3.94033 6.218866 3.07448
453 46 1 4.267525 6.722958 2.330666
454 46 1 3.704937 7.255897 1.800494
455 46 1 2.820983 6.955282 1.750731
456 46 1 1.978255 6.780739 1.322282
457 46 1 1.957192 6.310974 0.481205
458 46 1 2.500417 6.414847 -0.324334
459 46 1 2.133239 6.882618 -1.050341
460 46 1 1.852411 7.129351 -1.923542
461 47 1 2.408572 7.874643 -1.676763
462 47 1 2.849502 7.379154 -2.43809
463 47 1 3.553809 6.755789 -2.217107
464 47 1 3.869616 7.674915 -2.101132
465 47 1 3.304164 8.455422 -2.24338
466 47 1 3.308048 8.145431 -3.142982
467 47 1 2.356175 8.179698 -2.975095
468 47 1 2.238554 8.794433 -2.268681
469 47 1 2.868431 9.472164 -2.532651
470 47 1 3.727996 9.356342 -2.974592
471 48 1 3.172289 5.073866 -7.55322
472 48 1 2.382806 4.675531 -7.15
473 48 1 2.556584 4.257429 -6.26962
474 48 1 1.656559 4.034487 -6.563009
475 48 1 1.664438 4.989013 -6.421058
476 48 1 1.532512 5.663845 -7.076856
477 48 1 2.426874 6.003087 -7.279991
478 48 1 3.090606 5.645103 -6.687451
479 48 1 3.35004 5.70671 -5.745197
480 48 1 3.497569 4.818064 -6.083565
481 49 1 2.981177 4.550961 -5.300266
482 49 1 3.906767 4.370196 -5.094462
483 49 1 3.650498 3.650635 -4.521876
484 49 1 3.314625 4.469602 -4.169768
485 49 1 2.848728 5.222129 -3.841347
486 49 1 2.527804 5.30797 -2.9096
487 49 1 1.80454 4.638615 -2.754734
488 49 1 1.850397 4.898594 -3.635372
489 49 1 1.118293 4.247062 -3.493361
490 49 1 0.964413 3.340876 -3.799859
491 50 1 0.424465 -1.464271 -7.595126
492 50 1 1.264096 -1.074176 -7.304726
493 50 1 1.208471 -0.337556 -7.920073
494 50 1 1.818995 0.183729 -8.453811
495 50 1 1.946189 1.12924 -8.507297
496 50 1 2.767506 0.896926 -8.944212
497 50 1 2.314378 1.612659 -9.368106
498 50 1 1.884392 2.248821 -8.820948
499 50 1 1.282711 2.832948 -9.278884
500 50 1 0.831074 3.402748 -9.8785
501 51 1 1.404431 4.023694 -9.379969
502 51 1 1.682583 4.381731 9.760605
503 51 1 2.618602 4.533866 9.628076
504 51 1 2.36264 3.928347 8.937005
505 51 1 2.656271 4.436272 8.183932
506 51 1 1.872333 4.85766 7.85528
507 51 1 1.85336 4.947989 8.790276
508 51 1 1.382816 5.731773 8.54187
509 51 1 1.772983 6.017253 7.691439
510 51 1 1.998585 5.506166 6.93197
511 52 1 3.345505 -2.061811 -5.148682
512 52 1 3.64657 -1.365003 -4.525102
513 52 1 3.877323 -0.668381 -3.864172
514 52 1 3.636677 -0.342226 -2.984992
515 52 1 4.215237 -0.250021 -2.21409
516 52 1 3.50269 -0.787925 -1.838468
517 52 1 3.554576 -0.23092 -1.073996
518 52 1 3.974437 0.614769 -0.904751
519 52 1 4.518505 1.371653 -0.731544
520 52 1 4.393709 1.907262 0.080582
521 53 1 4.774615 1.320859 0.714394
522 53 1 5.259672 1.97297 1.214444
523 53 1 5.784079 2.669565 1.582752
524 53 1 4.909696 2.875875 1.854724
525 53 1 4.599257 3.6896 1.511893
526 53 1 3.924625 3.344903 2.07176
527 53 1 3.129418 2.881744 1.854735
528 53 1 3.645827 2.915738 1.061447
529 53 1 4.503686 2.581108 0.905358
530 53 1 4.39445 2.988018 0.048431
531 54 1 0.219678 2.788787 3.344968
532 54 1 0.02716 2.40408 2.508121
533 54 1 0.179342 2.519686 1.597522
534 54 1 1.116871 2.438921 1.626702
535 54 1 1.862393 3.042394 1.821092
536 54 1 2.389541 2.605514 2.541493
537 54 1 3.135545 3.0994 2.877876
538 54 1 3.352787 2.175244 2.682073
539 54 1 3.12706 1.79158 1.811252
540 54 1 3.659512 1.65054 1.035071
541 55 1 4.16928 1.023659 1.514254
542 55 1 5.040719 1.134303 1.859969
543 55 1 5.163361 1.035497 2.834291
544 55 1 5.903745 0.617483 2.334341
545 55 1 5.975679 0.547829 3.312507
546 55 1 5.52684 0.250767 4.121648
547 55 1 4.974746 -0.425776 4.456782
548 55 1 4.66851 0.499045 4.703418
549 55 1 5.422829 1.014023 5.029626
550 55 1 5.395393 1.344829 4.127862
551 56 1 5.45526 1.242671 -0.071871
552 56 1 6.118118 1.648605 0.578284
553 56 1 5.727284 0.918858 1.05707
554 56 1 5.836348 -0.038964 1.334996
555 56 1 5.081429 -0.620027 1.501411
556 56 1 5.059742 0.064586 2.150441
557 56 1 4.286401 0.525276 2.477916
558 56 1 4.220885 1.459034 2.478441
559 56 1 4.094744 2.213499 1.888605
560 56 1 4.361574 2.595436 2.715445
561 57 1 4.079614 3.297018 3.288126
562 57 1 3.871742 2.473705 3.700343
563 57 1 2.894126 2.381972 3.773617
564 57 1 2.346392 1.75206 4.175808
565 57 1 1.729703 2.494375 4.311788
566 57 1 0.883894 2.269116 4.689497
567 57 1 1.142719 1.490894 4.197134
568 57 1 0.719817 0.924187 3.531903
569 57 1 0.685175 1.869557 3.340005
570 57 1 -0.169387 1.446916 3.306577
571 58 1 -0.022488 1.002469 -8.752556
572 58 1 -0.616982 1.047987 -9.509766
573 58 1 0.191979 1.541306 -9.726628
574 58 1 0.375199 1.493103 9.330446
575 58 1 0.835693 0.656695 9.088934
576 58 1 1.663006 0.413338 9.467935
577 58 1 1.772997 1.321493 9.787651
578 58 1 2.664707 1.025036 9.755553
579 58 1 3.203985 1.463257 9.084172
580 58 1 2.937401 1.266304 8.181901
581 59 1 2.545863 1.741235 7.379794
582 59 1 2.841502 2.249117 6.633115
583 59 1 2.170422 1.997692 5.959407
584 59 1 1.750991 1.769183 5.125122
585 59 1 2.518378 2.317813 4.981756
586 59 1 3.262763 2.792897 4.664237
587 59 1 3.468448 1.858798 4.618416
588 59 1 4.365164 1.627128 4.465974
589 59 1 4.336302 2.585668 4.640382
590 59 1 4.101237 3.501507 4.389084
591 60 1 4.168849 -1.132465 4.561954
592 60 1 3.260361 -0.853063 4.577024
593 60 1 2.738998 -0.696402 5.381632
594 60 1 2.039621 -0.469642 5.993
595 60 1 2.684394 -1.041504 6.370619
596 60 1 2.844012 -0.176952 6.776517
597 60 1 2.974796 -0.859614 7.473455
598 60 1 2.922062 -0.824509 8.413523
599 60 1 2.063536 -0.519304 8.15617
600 60 1 1.27472 -0.994585 8.090338
601 61 1 0.468971 -0.896015 7.541419
602 61 1 0.976122 -0.051986 7.483067
603 61 1 1.375515 0.209807 8.303554
604 61 1 0.496369 -0.148009 8.407295
605 61 1 0.374338 -1.065175 8.698846
606 61 1 1.150994 -0.662164 9.090002
607 61 1 0.37378 -0.305383 9.552253
608 61 1 -0.088916 0.523685 9.747569
609 61 1 0.772742 0.595722 -9.84404
610 61 1 0.800921 0.201822 -8.956568
611 62 1 0.491696 2.640467 9.426496
612 62 1 1.075034 2.101579 9.979075
613 62 1 1.965879 2.369762 9.935943
614 62 1 2.25083 1.94543 9.089558
615 62 1 1.949144 1.12089 8.716933
616 62 1 2.463563 0.287799 8.740008
617 62 1 2.196186 -0.474516 9.242945
618 62 1 2.00512 -1.366922 8.98155
619 62 1 2.20789 -2.084316 9.544194
620 62 1 1.543576 -2.725535 9.262089
621 63 1 1.759735 -2.251428 8.440532
622 63 1 2.28873 -1.638736 7.909108
623 63 1 2.349817 -1.999908 6.999323
624 63 1 2.559699 -2.040734 6.066072
625 63 1 2.680882 -1.720573 5.200733
626 63 1 1.833556 -1.305654 5.232032
627 63 1 1.082023 -0.743813 5.458518
628 63 1 0.471566 -0.275436 4.915295
629 63 1 1.041325 0.343883 4.490902
630 63 1 1.865595 0.830624 4.603829
631 64 1 -0.467801 -1.903969 6.009899
632 64 1 -0.499431 -2.768944 6.408892
633 64 1 -0.275341 -3.224546 7.177604
634 64 1 -0.430033 -3.938965 6.506438
635 64 1 -0.298367 -4.89996 6.547138
636 64 1 0.183482 -4.432928 7.22953
637 64 1 0.675565 -4.390729 6.415271
638 64 1 0.976533 -4.256687 5.528967
639 64 1 1.898603 -4.333541 5.750917
640 64 1 2.653719 -4.669244 5.194701
641 65 1 3.066867 -4.345814 6.000467
642 65 1 3.34047 -3.768462 5.251496
643 65 1 3.558029 -3.16348 4.512332
644 65 1 2.815775 -2.786543 4.978208
645 65 1 2.325318 -3.453765 5.447771
646 65 1 2.513483 -3.750209 4.54977
647 65 1 1.570993 -3.910402 4.663334
648 65 1 1.550113 -4.863102 4.735974
649 65 1 2.358307 -4.887974 4.188667
650 65 1 2.673107 -5.677306 4.700246
651 66 1 1.529174 -5.056633 3.311683
652 66 1 1.041105 -4.390313 3.789572
653 66 1 0.85536 -3.902671 2.956889
654 66 1 0.507509 -3.516422 2.118482
655 66 1 0.29161 -4.441961 2.159825
656 66 1 -0.285971 -3.931332 2.708385
657 66 1 0.067604 -3.935093 3.5664
658 66 1 0.262164 -4.829079 3.222291
659 66 1 -0.203872 -5.639036 3.404209
660 66 1 -0.737475 -5.114543 2.786379
661 67 1 -0.810523 -4.571479 3.58731
662 67 1 -0.367435 -5.053661 4.301872
663 67 1 0.298523 -4.424807 4.627159
664 67 1 -0.130276 -4.330797 5.487977
665 67 1 0.276647 -3.534192 5.899858
666 67 1 0.332443 -3.474445 4.951427
667 67 1 -0.188786 -2.716589 5.219025
668 67 1 -0.94371 -2.848987 4.620804
669 67 1 -0.625008 -3.737642 4.427173
670 67 1 -0.970054 -4.486407 4.916383
671 68 1 0.509755 -8.786684 -0.420242
672 68 1 0.793101 -9.457742 0.181429
673 68 1 1.284267 9.864081 0.606851
674 68 1 2.13444 -9.771089 0.266423
675 68 1 2.092063 -9.746384 1.207228
676 68 1 2.711698 -9.057065 0.918556
677 68 1 2.042119 -8.772778 1.56947
678 68 1 2.146852 -8.502597 2.458418
679 68 1 1.945603 -7.626646 2.766074
680 68 1 2.11538 -7.465088 1.858222
681 69 1 2.885823 -8.014786 1.813539
682 69 1 2.985469 -7.37433 2.541599
683 69 1 3.754627 -6.957698 2.194331
684 69 1 4.6432 -7.245381 1.959901
685 69 1 5.348479 -6.835329 2.478569
686 69 1 5.986439 -6.151061 2.175654
687 69 1 5.459442 -5.460064 2.610318
688 69 1 6.061924 -5.420797 3.384978
689 69 1 6.224624 -5.82228 4.198605
690 69 1 6.795464 -5.462004 4.883572
691 70 1 5.298937 -6.331849 6.217584
692 70 1 5.215318 -6.856656 5.422995
693 70 1 4.502946 -6.830177 4.809958
694 70 1 4.448455 -6.89182 3.886666
695 70 1 4.500574 -7.325146 3.013665
696 70 1 3.625255 -6.982525 3.242024
697 70 1 3.504708 -7.929085 3.405462
698 70 1 2.76316 -7.441789 3.704251
699 70 1 1.875924 -7.812409 3.910093
700 70 1 1.989711 -8.686165 3.57881
701 71 1 1.260087 -8.862562 4.200469
702 71 1 0.326462 -8.750584 3.98341
703 71 1 0.176563 -9.102944 4.881433
704 71 1 -0.720439 -9.04319 4.524395
705 71 1 -1.597167 -9.150615 4.799142
706 71 1 -1.196477 -8.448692 5.285951
707 71 1 -1.342504 -8.162534 4.361822
708 71 1 -1.152736 -7.231245 4.218573
709 71 1 -1.197259 -7.389962 5.127216
710 71 1 -1.044122 -7.224758 6.056561
711 72 1 2.531789 9.189187 5.773931
712 72 1 2.665407 9.578845 4.935173
713 72 1 1.84712 9.982524 5.207662
714 72 1 1.372794 9.127247 5.264748
715 72 1 0.467775 8.742012 5.332719
716 72 1 0.426869 9.325337 4.526304
717 72 1 1.01678 -9.974663 4.257989
718 72 1 1.887915 9.572466 4.197499
719 72 1 2.352321 -9.574917 4.183921
720 72 1 3.013254 -8.986211 3.821049
721 73 1 3.710695 -8.585769 4.36869
722 73 1 4.428066 -8.218484 4.868905
723 73 1 4.463236 -7.931657 3.965646
724 73 1 5.350086 -8.252981 3.698962
725 73 1 5.434081 -7.293866 3.663863
726 73 1 5.22347 -7.504498 4.589448
727 73 1 6.034163 -7.061401 4.94256
728 73 1 6.051326 -6.236906 5.427223
729 73 1 6.760503 -5.79218 5.940621
730 73 1 7.310731 -6.527373 6.24921
731 74 1 5.93383 -5.481863 9.615599
732 74 1 5.194264 -6.078601 9.567707
733 74 1 4.325157 -5.889469 9.137733
734 74 1 3.595173 -5.761586 8.568607
735 74 1 4.244374 -5.058907 8.416238
736 74 1 3.81837 -4.710458 9.189786
737 74 1 2.924735 -4.958762 8.981892
738 74 1 3.269555 -5.658404 9.532782
739 74 1 2.506996 -6.019067 9.083657
740 74 1 2.594676 -6.274197 8.171975
741 75 1 2.785597 -5.885685 7.333537
742 75 1 3.491295 -6.503162 7.598807
743 75 1 3.046303 -7.358752 7.805696
744 75 1 3.371119 -8.217542 7.498844
745 75 1 3.336296 -9.044399 7.931835
746 75 1 3.724162 -9.853817 7.493566
747 75 1 4.554465 9.995624 7.061127
748 75 1 4.897665 -9.513244 7.842894
749 75 1 5.678505 9.963375 7.627068
750 75 1 5.713288 9.601557 8.545011
751 76 1 2.74852 -9.055464 -5.20482
752 76 1 3.468784 -8.403611 -5.340598
753 76 1 3.114867 -8.62671 -6.249092
754 76 1 3.065955 -8.292689 -7.163553
755 76 1 3.849907 -8.799779 -6.944997
756 76 1 4.216782 -8.860575 -6.040742
757 76 1 3.770859 -9.415999 -5.387277
758 76 1 4.567559 -9.844547 -5.71265
759 76 1 5.433583 -9.97612 -6.110283
760 76 1 5.041658 9.154981 -5.962391
761 77 1 5.354505 9.184426 -5.034046
762 77 1 5.047032 9.315156 -4.11026
763 77 1 4.820529 9.402862 -3.184811
764 77 1 5.435051 8.653293 -3.035912
765 77 1 6.019518 8.926536 -2.332527
766 77 1 6.579652 9.64718 -2.095015
767 77 1 6.984644 9.636341 -1.22614
768 77 1 7.230883 8.815692 -0.755487
769 77 1 6.886318 8.808274 0.18693
770 77 1 7.634062 8.233094 0.318432
771 78 1 7.462424 -8.847926 -3.58206
772 78 1 7.238864 -9.060414 -4.499864
773 78 1 7.024854 -9.387132 -5.392367
774 78 1 6.120105 -9.186032 -5.700464
775 78 1 5.199712 -8.878773 -5.719816
776 78 1 5.594455 -8.525992 -4.915768
777 78 1 6.122899 -9.268938 -4.569604
778 78 1 5.30384 -9.764713 -4.802839
779 78 1 4.347686 -9.866829 -4.606006
780 78 1 4.260042 9.333214 -5.154865
781 79 1 3.475545 8.774094 -4.985941
782 79 1 3.630437 8.315147 -5.807439
783 79 1 4.571413 8.298867 -5.651891
784 79 1 4.394549 8.469223 -6.5919
785 79 1 3.958807 9.295895 -6.27748
786 79 1 3.717331 -9.793191 -6.454656
787 79 1 3.066646 9.601603 -6.801882
788 79 1 2.860701 -9.486868 -7.093542
789 79 1 2.850179 -9.912345 -7.938418
790 79 1 3.266853 -9.0791 -7.936978
791 80 1 2.911551 8.624219 -9.015038
792 80 1 3.747142 8.238663 -9.200534
793 80 1 3.936173 8.909651 -8.526398
794 80 1 3.659306 9.439542 -9.283898
795 80 1 4.23841 9.87892 -9.888283
796 80 1 3.973832 9.565908 9.26204
797 80 1 3.534692 8.738288 9.05391
798 80 1 3.141838 8.618986 9.925787
799 80 1 3.600655 7.823279 9.60765
800 80 1 3.020826 7.532049 -9.751299
801 81 1 3.80172 7.14146 -9.37858
802 81 1 4.120918 6.584502 -8.631277
803 81 1 4.848707 7.040372 -9.11932
804 81 1 5.489753 7.246413 -9.776903
805 81 1 5.267878 7.620844 9.371676
806 81 1 4.469684 7.981755 9.018256
807 81 1 5.062174 8.051921 8.293112
808 81 1 4.925246 8.11505 7.340338
809 81 1 4.691347 7.311334 6.813016
810 81 1 5.668395 7.19988 6.812817
811 82 1 7.025543 -8.902527 -9.203863
812 82 1 6.277633 -8.97641 -9.790808
813 82 1 6.035229 -8.094662 -9.965633
814 82 1 5.966221 -8.288074 -9.006154