8000
Atoms. Timestep: 3400000
1 10.3333 4.32569 8.03361
1 9.64695 5.00287 8.19267
1 9.5342 4.36895 8.95467
1 9.76201 3.47607 9.35918
1 9.76364 3.3412 10.3248
1 10.0384 3.91688 -10.2765
1 10.6637 3.53903 -9.62268
1 -10.5807 4.3533 -9.16463
1 -9.70276 3.9176 -9.07048
1 -9.58121 3.62173 -8.12955
1 2.59475 0.12947 1.87304
1 3.42091 -0.292309 1.93908
1 3.84819 -1.14402 2.11604
1 3.11047 -1.74373 2.3717
1 3.16715 -1.98653 3.34085
1 4.00665 -2.42326 3.64662
1 4.19916 -1.58439 3.09403
1 4.23743 -2.38962 2.60486
1 4.42046 -2.22408 1.69214
1 4.96428 -1.55492 1.18187
1 -4.75748 8.91016 3.47769
1 -4.35872 8.03595 3.25552
1 -3.45249 8.27506 3.053
1 -3.4819 7.35359 3.18273
1 -2.96629 6.60209 2.95582
1 -3.21999 5.81326 3.5067
1 -3.53564 6.57045 3.9736
1 -3.67955 7.11555 4.80417
1 -4.41255 7.35749 4.26287
1 -4.84039 6.85682 3.55388
1 5.46078 6.90955 8.59841
1 5.96359 6.26728 9.13205
1 6.70463 6.16578 9.80942
1 6.83803 6.96411 10.4168
1 6.30402 6.29738 -10.5662
1 6.79861 5.36432 -10.6189
1 5.82757 5.23259 10.4247
1 5.56713 6.10749 10.1399
1 4.9364 6.24031 9.32721
1 5.3444 5.38028 9.0856
1 5.14267 -9.97899 3.20178
1 5.0325 -9.09293 2.82135
1 5.19157 -9.04017 1.88965
1 4.91452 -8.29293 1.28416
1 4.34342 -8.40937 2.01934
1 4.99222 -7.89271 2.4374
1 5.62999 -7.20298 2.65297
1 5.92476 -8.03255 3.11598
1 5.83613 -8.90324 3.46675
1 6.485 -8.82226 2.66675
1 4.12007 0.315805 -6.56609
1 4.28506 -0.100573 -7.37802
1 4.9756 0.511639 -7.80785
1 5.66254 0.913632 -7.25121
1 6.46401 1.49057 -7.06789
1 6.64586 1.45949 -6.17013
1 5.95738 2.13914 -6.19771
1 5.91777 2.89304 -5.61235
1 5.3016 3.67123 -5.7283
1 6.06264 3.85251 -6.24729
1 -7.37844 -5.8372 -10.647
1 -8.33442 -5.47578 -10.5874
1 -7.80285 -5.21229 10.0131
1 -7.5144 -4.32931 10.3021
1 -7.50915 -4.87376 -10.2546
1 -7.04352 -5.49277 -9.70742
1 -6.40364 -4.76421 -9.79076
1 -5.55309 -5.12672 -9.51537
1 -5.31334 -5.3998 -10.3637
1 -4.80975 -5.98738 -9.75218
1 10.5511 -7.0168 -7.0149
1 9.88961 -6.38648 -6.71574
1 9.41939 -6.30005 -7.5728
1 9.3318 -6.28571 -8.48916
1 9.94109 -7.03663 -8.36913
1 10.1722 -7.78095 -7.79136
1 -10.6054 -8.30721 -8.41061
1 9.9091 -8.7671 -8.35165
1 9.94253 -8.14939 -9.04246
1 9.75399 -7.30934 -9.54091
1 5.19248 3.95077 -9.77431
1 4.4537 4.15138 -10.2656
1 5.25449 4.0441 10.4686
1 5.14246 3.13236 -10.6157
1 4.78526 2.28727 10.5197
1 3.83498 2.12089 10.4186
1 3.71762 1.47611 9.63548
1 2.80733 1.21365 9.84988
1 2.80626 1.78999 -10.673
1 2.72745 0.90702 -10.3052
1 9.75406 7.42324 7.17903
1 8.868 7.75914 7.05762
1 9.27323 8.58918 7.36835
1 9.22625 8.84645 6.44367
1 9.633 8.55965 5.59444
1 9.25762 9.24922 4.93615
1 8.68142 8.57521 4.52984
1 8.40215 8.17456 5.37227
1 8.38456 7.50804 6.08934
1 7.7986 7.26637 6.7558
1 9.1193 1.33819 -4.60447
1 8.52581 2.12619 -4.80665
1 8.44535 1.88243 -3.90596
1 7.60769 2.06149 -3.42833
1 6.95663 2.37445 -2.76716
1 6.1358 2.55105 -2.37883
1 5.61894 3.35592 -2.33763
1 4.91231 2.8681 -2.72235
1 4.82428 2.21331 -3.45212
1 4.85307 1.72712 -2.56725
1 -0.169013 10.2138 2.04414
1 -1.08477 10.6392 1.97627
1 -2.01241 10.5246 2.18087
1 -2.28542 9.63698 2.54701
1 -2.84449 8.92128 2.23755
1 -3.40871 9.50104 1.68883
1 -2.97205 10.1419 1.0037
1 -3.85698 10.3833 1.21742
1 -4.51642 9.71375 1.26463
1 -4.21086 10.1345 0.307245
1 2.53106 -8.95661 -8.93262
1 2.41489 -9.60458 -8.22494
1 1.58346 -9.14353 -7.8718
1 0.650061 -9.22994 -7.85341
1 0.878592 -8.28098 -7.73554
1 0.849239 -7.55236 -8.24504
1 0.445145 -7.0344 -7.53967
1 0.284696 -6.13812 -7.23269
1 -0.170074 -6.91412 -6.76607
1 -0.734998 -7.15687 -6.04683
1 4.06339 2.09457 5.4474
1 4.65606 1.98824 6.26198
1 5.2326 2.23858 7.05605
1 4.73792 1.43187 7.31662
1 4.98168 0.851366 6.58721
1 4.9754 -0.0306656 6.94621
1 5.2717 -0.807362 7.33178
1 5.85457 0.0346784 7.40769
1 6.01992 0.918598 7.08493
1 5.8554 1.60807 7.73077
1 -6.56935 2.89836 -9.74792
1 -6.82421 1.99844 -10.0063
1 -6.1452 1.40617 -10.3401
1 -5.9464 0.556156 10.6676
1 -6.06079 0.327007 -9.77003
1 -5.60632 1.06445 -9.38589
1 -5.13017 0.617081 -8.75853
1 -4.7677 -0.060391 -9.26664
1 -5.01264 -0.745824 -9.96989
1 -4.47533 -1.04636 -9.26512
1 7.12157 -10.2188 5.22408
1 7.822 10.4779 5.15595
1 7.11664 10.1961 5.78364
1 6.60128 9.70787 5.14745
1 7.32493 9.60279 4.62778
1 7.66295 8.67485 4.65987
1 6.77935 8.71948 4.9475
1 6.45782 8.99793 5.86961
1 5.92351 9.17393 6.646
1 5.92987 8.22978 6.50571
1 9.14491 -2.58446 -6.78632
1 10.0277 -2.88331 -6.43546
1 10.0319 -2.96983 -5.45955
1 -10.4862 -3.64173 -5.67411
1 10.3522 -3.93842 -4.92789
1 10.0743 -4.47635 -5.68123
1 10.1806 -3.8816 -6.39917
1 10.2068 -3.97247 -7.36389
1 9.32082 -4.21258 -7.75015
1 8.99406 -3.94045 -8.57413
1 -5.27134 -8.35284 -8.70706
1 -5.64043 -9.10787 -9.34394
1 -5.56072 -9.32208 -8.3654
1 -5.19028 -10.114 -8.81086
1 -4.68677 -9.76592 -9.54755
1 -5.62597 -10.0174 -9.74471
1 -6.51963 -9.69268 -9.581
1 -6.47005 -8.7687 -9.90474
1 -7.16467 -8.38383 -9.41649
1 -7.57704 -7.98183 -10.1375
1 -2.19486 3.40528 6.53009
1 -2.67292 3.0413 7.31403
1 -1.89428 3.49133 7.66349
1 -2.62876 3.55653 8.26872
1 -3.5089 3.24772 8.04219
1 -3.45813 3.98959 8.6669
1 -3.55088 3.18377 9.1984
1 -4.09826 2.39402 9.42564
1 -4.0954 1.9941 10.2406
1 -4.96648 2.21446 10.36
1 9.52939 9.31939 -7.95166
1 8.79701 8.88309 -7.53832
1 9.52952 8.38422 -7.09993
1 9.46543 8.3303 -6.12053
1 8.6664 8.82226 -6.47531
1 9.33739 9.4315 -6.00843
1 9.94258 9.23919 -6.72852
1 -10.6237 9.0807 -7.30798
1 -10.373 8.32883 -6.80804
1 -9.96743 7.61395 -6.19364
1 -7.76941 -8.69534 -1.92264
1 -7.91842 -8.71792 -1.01445
1 -7.51265 -9.41183 -0.6431
1 -6.93583 -9.06607 -1.30625
1 -6.26202 -8.74933 -0.787889
1 -6.9308 -7.99357 -1.06854
1 -6.75241 -7.15845 -1.42492
1 -6.69042 -6.19001 -1.22457
1 -6.4837 -5.35182 -0.927458
1 -6.61333 -4.77793 -1.62475
1 -4.74672 -0.739016 -3.14904
1 -5.52296 -0.379321 -2.74142
1 -5.75787 0.542021 -2.28383
1 -5.66153 0.52399 -3.2962
1 -6.40861 1.07002 -3.02637
1 -6.78581 1.72378 -3.62497
1 -6.50775 2.22346 -2.81993
1 -6.36201 3.13904 -2.65129
1 -7.03795 2.83394 -1.97199
1 -6.88554 3.70538 -1.5166
1 0.11508 -4.02202 -7.16369
1 0.275171 -4.70861 -6.46025
1 0.168324 -5.06911 -7.30472
1 0.985015 -4.62588 -7.14623
1 0.72753 -4.04303 -7.87374
1 0.772713 -3.6605 -8.80377
1 1.46213 -3.86693 -9.60103
1 0.774404 -4.50916 -9.77883
1 0.704074 -5.45669 -9.67877
1 -0.0651095 -5.64911 -10.2987
1 -10.455 -3.3232 9.021
1 -10.2523 -4.28468 9.10731
1 -9.74371 -4.85554 9.73928
1 -9.35602 -3.94691 9.81515
1 -8.45804 -4.35752 9.95076
1 -7.83072 -3.90953 9.27885
1 -7.29805 -3.83849 8.49725
1 -7.04166 -4.53722 7.8823
1 -6.45262 -4.9513 7.27171
1 -6.81236 -5.77806 7.03992
1 1.21193 -0.602192 -6.76277
1 0.314807 -0.453361 -6.41887
1 0.865503 -0.985265 -5.91167
1 1.21811 -0.143785 -5.46743
1 1.5966 0.670626 -5.23095
1 2.49133 0.262684 -5.36062
1 2.88941 1.0767 -4.92492
1 2.36964 1.82004 -4.86119
1 3.16162 2.31805 -4.66159
1 2.96443 2.34907 -5.67667
1 5.64157 7.64294 -8.00324
1 6.05656 6.81034 -7.93159
1 6.64247 7.49122 -7.49744
1 7.30741 8.1853 -7.54453
1 7.05243 9.109 -7.36131
1 6.14263 9.34634 -7.1248
1 6.40487 9.95145 -6.46574
1 7.05812 10.3558 -7.08678
1 7.40952 10.5798 -6.20454
1 7.96702 -10.4923 -5.4373
1 2.30318 -9.89873 2.52571
1 2.71358 -9.03523 2.22952
1 2.78696 -9.48676 1.41761
1 2.94535 -10.4331 1.57557
1 3.57343 10.3084 1.99505
1 3.54131 -10.4482 2.71613
1 3.4001 9.99487 3.11926
1 2.62789 10.2624 2.52534
1 2.76455 9.74777 1.60155
1 1.95389 9.21413 1.43158
1 -2.5807 -3.60057 -2.61994
1 -2.24066 -4.38635 -2.85932
1 -1.19901 -4.29832 -2.69275
1 -1.31152 -4.96357 -3.33955
1 -2.207 -5.05247 -3.65914
1 -2.18762 -4.22444 -4.05574
1 -3.08577 -4.48057 -4.28925
1 -2.64829 -4.50643 -5.20929
1 -2.99541 -5.32222 -4.83417
1 -3.32046 -5.88121 -4.05159
1 3.04883 -8.09874 -8.65025
1 3.55861 -7.85443 -9.412
1 3.61966 -6.91978 -9.04103
1 4.48326 -6.96856 -8.59652
1 4.18095 -6.94556 -7.64073
1 3.95014 -6.05626 -7.51759
1 4.4554 -5.46646 -8.01102
1 4.59464 -4.7069 -8.55051
1 5.07592 -4.57435 -7.70804
1 4.50533 -5.15557 -7.04853
1 -2.68744 -7.86254 -1.34757
1 -3.08994 -7.22154 -1.94442
1 -3.29299 -6.35705 -2.14109
1 -3.49772 -5.53031 -1.62385
1 -3.05243 -5.86853 -0.792794
1 -2.80886 -5.47906 0.0526778
1 -2.49406 -5.86746 0.851672
1 -3.37211 -6.02882 1.02194
1 -3.64878 -6.92252 0.860348
1 -3.22919 -7.66809 1.39165
1 7.47308 -5.05516 7.6451
1 8.4112 -5.08293 7.69679
1 8.21421 -4.70297 8.60663
1 8.24505 -3.79278 8.69477
1 9.16847 -3.44201 8.74899
1 9.70886 -2.68007 8.68152
1 9.95505 -3.12256 9.53366
1 -10.6635 -2.59455 9.8472
1 -10.3126 -3.41196 10.1116
1 -10.6211 -4.33461 10.2509
1 6.43321 4.37542 6.95553
1 7.00829 3.99124 7.544
1 7.68863 4.30108 8.11319
1 7.64462 3.38315 8.10336
1 7.63494 3.74719 9.02002
1 7.76264 4.7153 9.02498
1 7.82512 5.56484 9.37501
1 7.64924 6.12149 8.63161
1 7.45415 7.00982 9.00401
1 8.24062 7.60553 8.7556
1 -1.57716 2.69218 3.9845
1 -1.88846 2.14292 3.26365
1 -2.01493 1.96359 2.27412
1 -1.03272 1.91657 2.04562
1 -0.126659 1.84001 1.643
1 0.220474 1.29864 0.947325
1 -0.682905 1.35301 0.82738
1 -0.727614 2.29967 0.826608
1 -0.795962 3.30129 0.761311
1 -0.604145 2.97966 1.68817
1 -6.8756 4.28556 5.14397
1 -7.40361 3.63185 5.48
1 -7.95926 4.34118 5.30648
1 -7.71974 4.37492 6.24027
1 -7.5422 5.07617 6.87346
1 -8.06673 5.38155 6.09495
1 -8.72514 5.22974 5.38543
1 -9.41156 5.68133 4.92771
1 -9.86714 5.85401 5.734
1 -10.5952 5.63395 6.37212
1 1.53955 5.9741 9.36407
1 2.20572 6.60731 9.30273
1 2.8073 6.11452 9.82522
1 2.97048 5.60869 8.94668
1 3.35909 6.50984 9.11266
1 3.86266 7.06449 8.51424
1 4.53661 7.64977 8.50907
1 4.04339 8.43739 8.15814
1 3.50738 8.84391 8.7788
1 4.33676 8.50585 9.18171
1 0.360273 -7.02586 9.67667
1 -0.238922 -7.68742 9.97688
1 0.19676 -8.17551 10.6538
1 0.164118 -8.94884 10.061
1 -0.771434 -8.74769 10.2573
1 -0.61931 -9.43627 -10.4115
1 0.136669 -10.092 -10.3186
1 -0.119273 10.3574 -10.2167
1 -0.951937 10.5364 -10.6382
1 -1.27253 9.63762 10.5307
1 4.11919 -6.64372 -4.90977
1 4.61583 -6.65826 -4.06225
1 3.69019 -6.448 -3.97777
1 4.13817 -5.90044 -3.20109
1 4.19129 -6.84878 -3.09439
1 3.43721 -7.41487 -2.91752
1 3.57644 -6.71083 -2.35307
1 2.746 -6.79375 -1.84524
1 2.47662 -7.39929 -2.54173
1 1.64475 -7.84478 -2.83487
1 -7.40007 -5.09197 -5.80519
1 -7.63806 -6.00102 -5.97882
1 -7.07741 -6.69969 -6.30044
1 -6.35162 -6.64236 -6.89249
1 -6.10552 -5.77172 -7.05936
1 -6.52701 -5.77815 -7.92401
1 -6.63583 -4.89052 -7.79958
1 -6.97934 -4.05165 -8.12466
1 -6.79805 -4.71985 -8.83408
1 -5.92088 -4.58937 -8.4007
1 8.77597 -4.02527 7.45052
1 9.73775 -3.93623 7.50424
1 10.5301 -4.42103 7.36316
1 10.5923 -3.75396 6.74911
1 -10.6013 -3.01578 6.09083
1 -10.1967 -2.20143 5.79179
1 10.2698 -2.49705 5.26002
1 9.70215 -1.78927 5.55263
1 9.43626 -0.950511 5.12548
1 8.82663 -1.62536 5.01258
1 5.49267 9.14342 0.0736757
1 4.77899 9.11162 0.806768
1 3.96196 9.10383 1.17698
1 3.91961 9.38053 2.15596
1 4.68869 9.84026 1.76501
1 5.2856 9.6722 2.46451
1 6.01124 10.1782 2.84153
1 6.87558 9.86795 2.42164
1 7.62138 9.2745 2.17053
1 8.04251 9.93721 2.76677
1 2.99666 0.89011 -2.70651
1 3.54798 0.116129 -2.79768
1 3.5589 -0.848063 -2.68532
1 4.18022 -1.57465 -2.50727
1 4.47009 -2.49557 -2.55839
1 5.3441 -2.38659 -2.8724
1 5.25109 -3.28201 -2.48612
1 5.98403 -3.88872 -2.6996
1 5.92686 -3.0794 -3.21474
1 5.76004 -3.58601 -4.02981
1 -2.81502 2.40837 -4.86044
1 -2.5452 2.41483 -5.73023
1 -2.11772 3.12606 -5.2889
1 -1.56123 2.68695 -4.68772
1 -1.38654 1.99574 -5.34464
1 -0.691306 2.24896 -4.65975
1 -0.537295 2.73707 -3.91215
1 -0.136516 3.56895 -3.62446
1 0.598176 3.76663 -4.28774
1 0.913268 4.62644 -4.57187
1 -1.53453 -6.81109 -8.48484
1 -2.22271 -6.33754 -9.02861
1 -1.59163 -6.60887 -9.72986
1 -0.879561 -6.46738 -10.3594
1 4.53276e-05 -6.8702 -10.5813
1 -0.173258 -6.12723 10.2068
1 -0.80555 -5.3866 10.0885
1 -1.68477 -5.52076 10.4317
1 -2.47642 -4.95514 -10.6304
1 -3.31668 -4.52466 -10.3863
1 1.92609 -0.914426 -3.17729
1 1.1448 -1.19542 -3.67951
1 1.79068 -1.87207 -3.50474
1 1.53174 -2.74815 -3.21224
1 1.0693 -3.5399 -3.37692
1 2.00805 -3.64251 -3.67418
1 2.3091 -4.39464 -4.08021
1 2.17904 -4.47252 -5.04666
1 1.62939 -5.13053 -4.671
1 1.49432 -5.58859 -3.84653
1 -3.65694 7.98592 -2.85332
1 -4.51373 8.19717 -2.51334
1 -4.90824 8.96558 -2.08828
1 -5.47934 9.76496 -2.03121
1 -5.87755 9.58152 -2.82403
1 -5.65124 8.85918 -3.38781
1 -5.24954 8.2933 -4.11181
1 -5.03678 7.89082 -4.94342
1 -4.63912 8.76884 -4.88491
1 -4.05436 9.42566 -4.41429
1 5.52053 -5.35516 -8.41438
1 6.44119 -5.33892 -8.26389
1 6.81611 -4.56721 -8.00218
1 6.4765 -3.70445 -7.72873
1 7.4979 -3.76262 -7.64846
1 7.8875 -3.22379 -6.99189
1 7.02213 -2.90111 -7.27604
1 7.34369 -2.75491 -8.19741
1 7.88719 -3.55582 -8.50201
1 7.95002 -2.89609 -9.1784
1 -8.98273 -7.45994 3.63758
1 -9.46894 -8.12248 4.13878
1 -9.87653 -8.74434 3.44213
1 -9.01576 -8.39413 3.27377
1 -8.46527 -9.17733 3.27601
1 -7.95027 -9.95322 3.53603
1 -8.22872 -9.96388 2.60744
1 -7.36806 -9.51059 2.67193
1 -7.76319 -9.11818 1.80891
1 -7.34857 -8.48109 2.41868
1 3.20035 3.66178 7.42654
1 3.42287 3.15614 8.1865
1 4.09937 2.74037 7.6167
1 4.8312 2.29997 8.06963
1 5.66435 2.66017 7.87104
1 5.0141 3.37371 7.87021
1 5.80467 3.75907 8.07077
1 5.38025 4.61566 7.87018
1 5.01527 4.16628 8.7068
1 4.54964 5.08407 8.5581
1 -8.58017 2.33294 8.47302
1 -8.3022 3.09753 7.89308
1 -8.80667 3.69454 7.36325
1 -9.03826 3.71005 6.41525
1 -9.50019 3.02347 6.9393
1 -8.99705 2.60634 6.26747
1 -8.73432 2.09528 7.0437
1 -7.92539 1.8433 6.57195
1 -7.77793 2.13941 7.43352
1 -7.02928 2.32097 6.74068
1 -4.8777 4.75381 0.836329
1 -4.10233 4.28786 0.633924
1 -4.34423 3.70033 -0.10133
1 -3.7267 2.94896 0.0349591
1 -3.88023 2.00924 0.285642
1 -3.3402 1.65425 -0.495725
1 -3.12698 1.29893 0.42335
1 -3.39265 0.368548 0.67629
1 -2.81847 -0.0761369 0.101477
1 -2.79855 -0.0638331 -0.865572
1 10.1503 -7.10258 8.05934
1 -10.5707 -7.63405 7.65591
1 -9.63279 -7.74754 7.6902
1 -9.94259 -7.45127 8.5715
1 -9.92392 -7.21275 9.50142
1 10.5007 -7.37776 9.14488
1 -10.5852 -6.64155 8.59905
1 10.4637 -5.9118 9.20234
1 -10.6093 -6.20074 10.1465
1 9.77417 -6.40701 9.88644
1 -2.21716 8.35252 2.85298
1 -2.3021 8.67647 3.72149
1 -1.46392 8.14849 3.71252
1 -1.61703 7.30661 3.28501
1 -1.10516 7.54382 2.45814
1 -0.496518 8.02504 1.82695
1 0.233976 7.33293 1.63114
1 -0.305396 7.296 0.778078
1 -0.23774 6.3584 1.05274
1 -0.969908 5.79775 1.29729
1 -2.24286 -0.533063 6.1749
1 -1.24324 -0.30346 6.20022
1 -0.927375 -0.423169 7.10014
1 -1.19979 0.152594 7.80954
1 -0.907829 0.515276 8.60364
1 -0.411763 -0.274599 8.4524
1 -0.888392 -1.1583 8.33675
1 0.0689305 -1.40917 8.25783
1 0.0513736 -0.843304 7.39509
1 0.606946 -0.505484 8.13667
1 -7.13057 5.56843 -3.73602
1 -7.62752 5.82713 -4.5748
1 -7.31398 6.65301 -4.91393
1 -6.76619 6.4494 -5.77215
1 -7.3465 6.66324 -6.45476
1 -7.45117 6.79161 -7.41619
1 -7.03362 5.86177 -7.38772
1 -6.06681 5.74145 -7.07396
1 -6.13477 4.73267 -7.1074
1 -6.36367 5.06454 -6.14486
1 9.57873 7.27849 -6.84054
1 8.69491 7.43691 -6.62982
1 9.29656 7.13389 -5.8689
1 9.82767 7.60659 -5.25268
1 9.41575 6.93084 -4.75078
1 8.48457 6.82147 -5.02475
1 8.43361 6.62924 -5.98061
1 7.67049 6.06992 -6.04798
1 7.11209 6.33578 -6.80651
1 6.31058 5.77121 -6.91612
1 -5.04832 -8.1777 1.48269
1 -4.68851 -7.43187 2.04122
1 -4.65914 -6.52202 2.40125
1 -4.00287 -5.8684 2.38167
1 -4.87484 -5.43198 2.44886
1 -5.41225 -5.01887 1.75727
1 -4.60315 -4.59351 1.39771
1 -4.52002 -3.61956 1.66117
1 -4.34368 -3.44854 2.53372
1 -4.95089 -3.6233 3.2625
1 6.24452 7.19327 9.58218
1 5.39283 7.55877 9.51144
1 5.40979 8.13907 8.80875
1 5.10326 9.11357 8.85659
1 4.31623 9.73385 8.74126
1 5.07624 10.2224 8.71427
1 5.91013 10.4351 9.24069
1 5.52904 -9.95775 9.2003
1 6.32128 -10.0816 9.76744
1 5.51187 -10.3124 10.3165
1 -8.19968 6.59915 5.30228
1 -8.01873 6.72659 6.2179
1 -8.94348 6.29729 6.22418
1 -9.47999 6.76044 5.61224
1 -8.87379 7.40484 6.10089
1 -8.8107 7.72741 5.19586
1 -8.59657 7.35535 4.3091
1 -9.13086 6.59383 4.34642
1 -8.4508 5.91976 4.45849
1 -8.64569 4.97031 4.43862
1 7.06721 0.465243 -10.5889
1 7.78718 -0.173894 -10.3597
1 8.51708 0.348427 -9.98135
1 8.58724 0.0412861 10.4835
1 8.95187 -0.0792848 9.5363
1 8.87479 -0.996319 9.80843
1 8.77167 -1.24176 8.88624
1 9.23521 -1.8614 9.52179
1 9.1839 -2.48324 10.2025
1 9.55019 -2.2945 -10.2854
1 10.0739 7.59763 -0.995045
1 9.94907 6.71464 -0.645224
1 9.16185 7.22313 -0.348145
1 9.27797 8.16172 -0.119414
1 10.0719 8.53559 0.354064
1 9.28521 9.00277 0.700113
1 8.40116 8.72405 0.377542
1 8.44725 7.76098 0.592075
1 8.02019 7.29184 -0.124442
1 7.12041 7.00956 -0.468645
1 4.73033 10.4143 -9.37288
1 3.97624 -10.6168 -8.84569
1 4.70745 10.4432 -8.22659
1 5.1086 9.75008 -7.64246
1 4.76068 9.28524 -8.41022
1 4.37211 8.86567 -7.55599
1 3.39973 8.78224 -7.47039
1 3.69797 7.95909 -7.14591
1 4.43038 7.76486 -7.72533
1 4.89643 6.96443 -7.61695
1 3.20659 -4.32455 2.79075
1 3.21545 -3.58693 3.46141
1 3.74839 -3.3887 2.64317
1 3.70459 -3.21259 1.71537
1 3.27496 -4.05286 1.65546
1 3.50116 -3.75556 0.7433
1 3.06809 -2.83015 0.923924
1 2.80325 -2.58793 1.83015
1 2.50724 -1.75093 1.44315
1 3.46335 -1.87644 1.2724
1 3.52899 8.77913 7.41957
1 2.62355 8.80849 7.86311
1 2.55326 8.55187 8.79
1 1.648 8.60232 8.56297
1 0.757377 9.00045 8.31043
1 0.702914 8.46646 7.57303
1 0.150181 7.81525 7.07505
1 -0.696347 8.40327 7.30331
1 -1.34465 8.76376 6.69684
1 -1.3285 9.67635 6.93723
1 -1.86109 -7.95502 -3.22169
1 -1.24618 -8.0913 -2.41808
1 -1.25581 -7.72009 -1.55413
1 -1.17931 -8.1836 -0.675375
1 -0.568006 -8.9321 -0.261343
1 -1.48033 -9.12944 0.00776133
1 -1.58358 -9.55819 0.802441
1 -2.55579 -9.32197 0.660799
1 -2.64652 -9.95923 1.35263
1 -3.13988 -10.4288 2.04064
1 10.4111 9.68183 -2.50304
1 10.0271 10.4138 -3.07238
1 9.57716 -10.1257 -3.10157
1 10.5324 -9.89103 -3.54679
1 10.6026 -9.00341 -3.11373
1 -9.87388 -9.46722 -3.3346
1 -8.81621 -9.53041 -3.34084
1 -8.08054 -9.88606 -3.77623
1 -7.60044 -9.04778 -3.72013
1 -7.27253 -8.24645 -3.16198
1 5.44406 0.306458 -10.0588
1 6.16936 -0.215432 -10.3834
1 6.33124 -0.898151 -9.67123
1 5.70796 -1.3211 -9.03261
1 5.9678 -1.95656 -9.70109
1 6.48066 -2.24449 -10.4329
1 6.37495 -3.21414 -10.1414
1 5.47901 -3.09813 -10.1777
1 4.86665 -2.2827 -10.0464
1 3.85966 -2.37896 -9.68546
1 -4.69862 2.04516 -5.77472
1 -5.20309 1.42906 -5.24961
1 -4.41403 0.923239 -5.08
1 -4.78291 0.113956 -4.75576
1 -4.06613 -0.284586 -5.20837
1 -3.30292 0.342329 -5.01343
1 -3.53766 0.503925 -5.91447
1 -4.28724 1.01266 -6.27466
1 -5.26682 1.32691 -6.33821
1 -5.09064 0.450163 -5.87335
1 -8.74464 8.66338 -9.13445
1 -8.42782 8.28909 -9.96441
1 -7.48142 7.89005 -10.2453
1 -7.08668 7.94054 10.1252
1 -6.59184 8.58284 -10.6246
1 -6.16099 9.10881 -9.99
1 -6.76918 8.51862 -9.58391
1 -6.43977 7.62477 -9.61004
1 -7.00616 7.61623 -8.83745
1 -7.86473 7.44866 -9.28079
1 6.06042 -3.66668 8.07858
1 6.72613 -3.02287 8.24353
1 7.70532 -2.96646 8.21306
1 7.93477 -2.04041 8.38581
1 7.68485 -1.19924 8.74706
1 7.83864 -0.848323 9.64814
1 7.70633 0.0236235 9.29149
1 8.35697 0.0701931 8.66705
1 8.7773 0.843353 8.24707
1 9.00029 1.75412 8.53728
1 10.1165 -9.28057 -2.33207
1 -10.5511 -9.91122 -2.49627
1 10.5343 -10.3305 -1.645
1 -10.3475 10.5711 -0.958582
1 -10.1313 9.75108 -0.575773
1 -9.25348 9.98643 -0.378547
1 -9.48456 10.0402 -1.30499
1 -9.46806 9.45215 -2.08591
1 -9.64139 8.98631 -1.26035
1 -10.4404 9.45638 -1.51778
1 -9.06954 -0.360597 9.77086
1 -9.47397 0.208185 9.07214
1 -9.95125 0.797178 9.69165
1 -9.73631 1.54431 9.15435
1 -9.30624 2.21186 9.60144
1 -9.85687 2.58962 10.3361
1 -10.5079 3.25102 -10.6096
1 -9.81563 2.86755 -10.0308
1 -9.42175 3.4727 10.6501
1 -9.93028 4.04689 -10.1465
1 1.69963 7.82957 -7.94485
1 0.852908 7.8524 -8.48797
1 0.406689 7.84211 -7.52108
1 0.0556568 7.02876 -7.85745
1 1.02395 7.04424 -7.77026
1 1.41227 7.19467 -6.92158
1 1.18482 7.47337 -6.06136
1 1.95495 7.94631 -6.10568
1 1.55225 8.35301 -6.78929
1 1.48939 8.96492 -7.54272
1 0.0250241 -1.02179 -3.91967
1 0.302149 -0.398712 -3.2426
1 1.18218 -0.00374279 -3.55256
1 0.623854 0.626121 -3.04078
1 1.20203 1.07478 -3.5887
1 0.841568 1.59833 -2.78386
1 0.475966 1.03319 -2.07679
1 0.341767 1.97031 -1.83511
1 0.214484 1.93397 -0.907252
1 0.543555 2.86103 -0.945137
1 -7.90488 -10.5045 -7.05821
1 -8.44695 10.3618 -6.3669
1 -8.16485 -10.2481 -5.85911
1 -7.26003 -10.4902 -6.11541
1 -7.3368 9.89991 -6.0829
1 -6.98538 9.37726 -5.29901
1 -7.03438 8.61283 -4.7116
1 -6.2622 8.3416 -4.14904
1 -5.9637 7.60909 -3.53007
1 -6.54067 7.43159 -2.80237
1 -2.81939 3.31747 -6.10226
1 -3.23826 2.77355 -6.77375
1 -3.43156 3.13455 -7.63309
1 -2.99677 2.82471 -8.40364
1 -3.70435 2.19564 -8.33023
1 -4.13009 1.34999 -8.70693
1 -4.12116 0.565409 -8.22733
1 -3.30236 1.13025 -8.06231
1 -3.10289 1.30439 -7.14879
1 -2.75648 2.07853 -7.68783
1 -10.0485 0.610462 2.68636
1 10.4277 0.991434 3.09076
1 9.48263 1.09317 2.82601
1 9.16399 0.789397 2.01799
1 9.27177 0.929221 1.11721
1 9.5269 1.42263 0.326486
1 9.48302 0.688126 -0.32845
1 10.365 1.06343 -0.252966
1 -10.3759 1.71971 0.267314
1 -9.55374 1.30729 0.287521
1 -5.21573 -8.17045 7.53563
1 -4.55174 -7.59914 7.88298
1 -4.48084 -7.25036 7.00198
1 -4.04332 -7.02954 6.11212
1 -3.8497 -7.77827 5.58904
1 -4.68481 -7.58677 4.95164
1 -5.1978 -8.41019 5.01218
1 -4.89175 -8.16477 5.8837
1 -4.60874 -9.05877 5.45686
1 -3.94731 -8.79499 6.13862
1 1.22643 10.4806 -6.68459
1 1.9151 9.89804 -6.40384
1 1.8733 9.95964 -7.34352
1 1.99363 9.63796 -8.17943
1 2.33869 8.76283 -8.23375
1 2.73273 7.97202 -7.74631
1 2.74217 8.11314 -6.81093
1 2.48698 7.19693 -6.66165
1 2.20615 6.37228 -6.22132
1 1.56418 6.15972 -6.93036
1 -6.01861 4.08556 4.35076
1 -5.7581 4.53247 5.15158
1 -5.96794 4.94314 6.0098
1 -6.7006 4.48102 6.29766
1 -6.07263 3.9159 5.84719
1 -5.93178 3.75083 6.77114
1 -4.94695 3.94801 6.62521
1 -4.46203 4.80214 6.45165
1 -4.7702 4.4666 5.61751
1 -4.87097 3.72815 5.01458
1 -9.9493 0.626389 -0.581889
1 -9.95107 -0.193808 -0.0734191
1 -10.2953 -0.980078 0.326169
1 10.1306 -0.986492 0.0436334
1 9.10579 -0.839141 -0.026912
1 9.54939 -0.183966 0.545217
1 10.3999 0.190303 0.168456
1 10.3698 0.258813 1.1715
1 9.63623 -0.170095 1.68854
1 10.2249 0.480886 2.27473
1 -8.21563 -0.308474 2.63956
1 -7.43354 0.0228632 2.24791
1 -7.03955 0.482517 1.45351
1 -6.89283 1.34513 1.7593
1 -7.4008 1.27253 0.915004
1 -7.8755 0.401533 0.792156
1 -8.77863 0.752353 1.05229
1 -9.49044 0.985512 1.71018
1 -10.4303 1.08047 1.35412
1 -9.9033 0.463961 0.819392
1 -9.35837 -0.923879 4.28476
1 -8.96504 -1.62211 3.70893
1 -8.04244 -1.59773 3.61388
1 -7.89254 -2.47454 3.89712
1 -7.69733 -3.26124 3.42643
1 -6.80707 -2.78457 3.58304
1 -6.57336 -3.6581 3.69075
1 -6.80595 -3.75812 2.76413
1 -7.10183 -4.46383 3.35282
1 -7.28393 -5.22767 2.75452
1 -10.4572 -3.94263 4.44338
1 9.96934 -3.89725 4.76322
1 9.25774 -3.41573 5.09803
1 8.43664 -3.62206 5.47782
1 8.17156 -2.8293 4.91912
1 8.90451 -2.76829 4.20272
1 9.82356 -2.6168 4.0686
1 -10.5736 -2.72987 4.24297
1 10.4856 -1.98246 3.55111
1 10.6546 -2.03417 2.57345
1 7.71412 -7.94209 -7.55626
1 7.55016 -8.67706 -8.1582
1 7.81715 -9.23301 -7.3949
1 8.49863 -9.51349 -8.03398
1 8.73413 -10.0443 -8.77444
1 9.57173 -9.85684 -8.24394
1 10.2947 -10.3144 -8.54393
1 -10.066 -10.24 -8.34758
1 -9.45059 -9.52944 -8.14339
1 -9.73166 -9.08775 -7.39638
1 -1.23734 -9.66979 -0.869909
1 -1.06085 -9.21328 -1.66834
1 -0.301962 -8.68346 -1.36094
1 0.587226 -8.35672 -1.34161
1 1.47136 -8.2807 -0.892264
1 1.92191 -8.7072 -1.59266
1 1.53859 -9.45567 -1.09596
1 1.25998 -9.38116 -1.97964
1 1.45877 -10.3301 -1.91257
1 2.34329 -10.4469 -1.54699
1 5.97673 8.89677 -9.62632
1 5.09794 8.61815 -9.61316
1 5.14881 9.50121 -9.82189
1 5.98339 9.70209 -10.235
1 6.491 9.3939 10.357
1 6.75871 8.4922 10.4338
1 7.33422 8.66157 -10.1763
1 8.13308 8.19281 -9.8752
1 8.36767 8.17908 10.6266
1 7.67419 7.78391 10.0184
1 -3.30686 3.85662 -0.752822
1 -2.4022 4.02656 -0.563278
1 -2.365 4.9039 -0.223985
1 -3.29047 4.95445 0.127126
1 -3.13355 4.01613 0.256784
1 -2.7024 3.32314 0.631845
1 -2.04419 3.77725 1.11618
1 -2.49953 4.59464 0.871837
1 -1.58167 4.86796 1.05668
1 -0.613411 4.77432 0.924119
1 0.553615 1.17356 2.26751
1 0.902196 1.79888 1.58059
1 1.85974 2.17763 1.47022
1 1.24848 2.30624 0.678198
1 0.614028 2.10721 -0.0269421
1 -0.217587 2.56195 -0.150408
1 -0.517227 2.911 -0.977241
1 -1.36265 3.19217 -0.635619
1 -1.6616 2.95162 0.213615
1 -2.46263 2.98007 -0.277606
1 -10.4742 4.09088 9.06273
1 -10.6626 4.96106 8.80587
1 10.0082 5.60073 9.10014
1 10.2183 6.20952 8.30726
1 10.487 7.12687 8.42198
1 -10.6596 7.18551 9.36121
1 -10.4701 6.21129 9.1969
1 -9.76649 6.38914 8.51785
1 -9.51483 7.00741 9.21372
1 -9.5818 7.69957 8.60539
1 4.80831 1.27042 -10.1613
1 3.82352 1.23546 -10.2558
1 3.91781 0.457028 10.3812
1 3.08483 -0.0167899 10.1301
1 3.24241 -1.02503 10.2632
1 3.8258 -1.01769 9.53641
1 4.76634 -1.08773 9.64514
1 4.6139 -2.04303 9.3434
1 4.30558 -1.53565 8.64085
1 4.50981 -2.25595 8.03431
1 9.55839 -5.8869 4.98459
1 10.225 -5.21441 4.73868
1 10.2271 -4.75475 3.88314
1 9.69391 -4.87897 3.15348
1 9.98534 -5.77031 2.75779
1 10.1883 -5.05729 2.16778
1 10.2079 -5.17526 1.19819
1 10.0728 -6.00094 1.60315
1 9.34037 -6.47728 1.30167
1 9.86325 -6.12936 0.516933
1 2.03477 4.75094 9.11259
1 2.71185 4.87249 9.78299
1 2.69302 4.88006 -10.5291
1 1.94659 4.55978 -9.99811
1 1.56119 4.29189 -9.13413
1 1.68523 5.17405 -8.67555
1 1.57413 5.04754 -7.7089
1 1.83568 5.00755 -6.81662
1 1.70936 4.77642 -5.85339
1 2.11043 4.733 -4.98634
1 6.09395 -7.09098 3.71779
1 6.09802 -6.24467 3.20222
1 6.12914 -6.44853 2.23926
1 6.2138 -5.52367 2.47484
1 6.87805 -5.40798 3.16152
1 7.24057 -6.29753 2.91709
1 7.00346 -7.21251 3.08309
1 7.82383 -6.92383 3.49425
1 7.21039 -7.33628 4.14211
1 7.9047 -7.85286 4.40877
1 3.19337 7.89939 3.41441
1 3.47576 7.58588 4.33338
1 3.48414 7.38546 5.2977
1 3.87253 6.57297 4.97711
1 4.48146 7.39929 5.18092
1 5.35641 7.22219 4.7211
1 5.51518 6.29275 4.38496
1 6.32038 5.88372 3.95451
1 7.00531 6.27115 3.34844
1 7.02767 7.14994 3.03662
1 -0.119595 9.9133 10.1743
1 0.0238227 9.328 9.43633
1 0.887054 9.64006 9.23927
1 0.595877 10.4452 9.63679
1 1.32243 -10.5296 9.14396
1 1.97352 10.2019 9.40625
1 2.11666 9.2976 9.18846
1 2.6591 9.75005 8.54066
1 1.81646 10.2425 8.2193
1 2.00279 -10.1605 8.20549
1 -7.40261 -7.62294 -7.41194
1 -6.95268 -6.86328 -7.83039
1 -7.05783 -6.57332 -8.73696
1 -7.09909 -6.67365 -9.75682
1 -7.76657 -6.91165 -10.2874
1 -7.76853 -7.32505 -9.31329
1 -8.11133 -6.91886 -8.59848
1 -7.89665 -7.81317 -8.28631
1 -8.54553 -8.22658 -8.93292
1 -9.26199 -8.88001 -9.27118
1 0.586844 -4.13135 1.32376
1 0.483964 -3.20558 0.900234
1 -0.462089 -3.04907 1.14385
1 -0.479298 -3.31272 2.0722
1 -0.712104 -2.86654 2.90739
1 -0.912445 -2.73221 3.7835
1 -1.27086 -3.50786 3.428
1 -1.76485 -4.1592 3.92384
1 -2.12681 -3.29373 4.20325
1 -2.81728 -2.52816 4.25807
1 -6.55435 9.2337 3.73082
1 -7.40619 9.76735 3.58103
1 -7.19632 -10.6626 3.1418
1 -8.15927 10.4785 2.90856
1 -8.44059 10.483 2.00294
1 -8.36754 -10.4688 1.12276
1 -8.95657 -9.90284 0.587736
1 -9.5909 -9.95002 -0.153623
1 -9.54412 -10.1815 -1.03003
1 -9.66828 -9.78657 -1.87484
1 -1.13389 -0.325495 -1.8801
1 -0.730553 -0.00195559 -1.05268
1 -1.57621 0.348842 -0.884434
1 -1.3224 1.01773 -0.24724
1 -0.420425 0.651832 -0.0488357
1 0.123188 0.604528 -0.826397
1 0.997127 1.01991 -0.9211
1 1.28051 1.13373 0.0390017
1 1.6048 0.243856 0.10962
1 2.01772 -0.134845 -0.70139
1 7.67946 -4.96801 -1.49694
1 8.13452 -5.07334 -2.30787
1 8.74821 -4.74132 -2.9227
1 9.51315 -4.27191 -2.67679
1 9.76877 -4.64725 -3.54159
1 9.97862 -5.45905 -3.08997
1 10.2297 -5.83237 -3.87285
1 -10.2594 -5.33455 -3.78884
1 -9.93266 -6.16142 -3.33913
1 -9.15093 -5.67263 -3.35993
1 -10.3862 0.700213 -6.75972
1 -9.62588 0.892922 -7.29431
1 -10.2812 0.629185 -7.95065
1 -9.58997 1.05351 -8.41237
1 -9.16688 1.63472 -7.80924
1 -10.122 1.69773 -7.50343
1 10.3412 1.32247 -7.28274
1 9.78041 1.89156 -7.86288
1 10.3844 2.73595 -7.7556
1 9.60251 2.95238 -7.13385
1 -0.0721062 -8.24937 5.86008
1 -0.485113 -7.66711 6.4579
1 -0.465051 -7.08689 7.25055
1 -0.66451 -6.13611 7.00209
1 -0.452656 -5.47973 7.6169
1 -0.759305 -4.6358 7.23393
1 0.139582 -4.53825 7.53535
1 1.01538 -4.85921 7.52374
1 1.42786 -3.97378 7.61497
1 1.3886 -3.83297 8.532
1 -8.7292 -4.63461 2.97796
1 -9.66463 -4.4592 2.9743
1 -9.45751 -4.48772 3.92106
1 -8.51646 -4.13343 4.03243
1 -8.01568 -4.28236 4.83278
1 -8.25483 -4.25627 5.73892
1 -8.3197 -5.04025 6.26646
1 -9.01983 -4.38906 6.49198
1 -8.6354 -4.39233 7.36287
1 -8.3362 -4.45822 8.24005
1 3.15066 -4.70842 3.792
1 2.46028 -4.87087 4.4851
1 1.54137 -5.21117 4.47323
1 1.81772 -4.98798 5.37217
1 1.99668 -4.60139 6.28513
1 1.95377 -5.28867 7.04282
1 1.41413 -5.87152 6.52711
1 1.35451 -5.88834 5.54298
1 1.5098 -6.37228 4.80669
1 2.19753 -7.0865 4.46825
1 1.66768 3.15082 -9.55938
1 1.72155 2.63163 -10.3534
1 1.68931 1.65389 -10.1995
1 1.02793 1.80157 -9.5082
1 0.339005 2.47137 -9.24494
1 -0.222953 3.21264 -9.3217
1 -1.17221 2.77091 -9.56748
1 -1.27714 2.69985 -10.5369
1 -0.352015 3.01089 -10.4068
1 -0.854424 3.83599 -10.6287
1 5.0415 4.41018 -2.35863
1 5.65976 5.15433 -2.44362
1 4.96006 5.56334 -1.92315
1 4.77132 6.0196 -2.71299
1 5.73136 6.17962 -2.66587
1 6.5734 6.57439 -2.60095
1 6.91335 6.10997 -3.3897
1 7.43999 7.00669 -3.26712
1 8.19491 7.67943 -3.45364
1 8.62573 6.97986 -4.02026
1 -4.2758 10.433 -7.84897
1 -4.79804 9.60112 -8.1031
1 -3.92308 9.33119 -7.92569
1 -4.36457 8.57412 -7.57127
1 -3.9107 8.34395 -6.7261
1 -3.57397 7.88422 -7.45615
1 -3.75958 8.00371 -8.3915
1 -4.60185 7.59543 -8.08015
1 -5.16487 7.72651 -7.36625
1 -4.53576 7.52109 -6.71601
1 -6.26481 9.14464 6.89563
1 -5.33441 8.90772 6.79263
1 -5.37795 8.66759 7.70263
1 -5.65865 9.36152 8.36083
1 -6.42682 9.71402 8.77131
1 -5.91798 9.7187 9.60845
1 -5.7121 10.1778 10.4014
1 -4.92366 9.63083 10.0803
1 -5.06884 8.7195 9.65762
1 -5.78729 8.99348 10.2489
1 3.44207 -2.28796 7.56903
1 3.92036 -2.77835 6.94188
1 4.49418 -2.05622 6.70793
1 3.69183 -1.66057 6.27706
1 2.88093 -2.29462 6.14042
1 1.97245 -2.0476 6.25502
1 1.40926 -2.00533 5.54586
1 2.13705 -2.64326 5.38823
1 2.91491 -2.15987 4.98083
1 3.11271 -2.65398 4.20494
1 5.49902 -9.25894 -10.0556
1 4.95537 -10.0201 -10.2468
1 5.6223 -10.6159 -9.95022
1 6.57134 10.5207 -9.74604