units 		lj
dimension 	3

#atom_style	bond
# if there are angular potentials, use next line
atom_style	angle
angle_style	cosine

read_data k{5}t{1.2}p{0.0}f{5}n{8000}npt.lmp #comment me after t1.2
  orthogonal box = (-10 -10 -10) to (10 10 10)
  2 by 2 by 2 MPI processor grid
  reading atoms ...
  8000 atoms
  reading velocities ...
  8000 velocities
  scanning bonds ...
  1 = max bonds/atom
  scanning angles ...
  1 = max angles/atom
  reading bonds ...
  7200 bonds
  reading angles ...
  320 angles
  2 = max # of 1-2 neighbors
  2 = max # of 1-3 neighbors
  4 = max # of 1-4 neighbors
  6 = max # of special neighbors
  special bonds CPU = 0.139761 secs
  read_data CPU = 0.349586 secs
#read_restart k${k}t${T}p${p}f${f}n${n}npt-1.res #todo: use both instead of 1? talk to Starr

pair_style	lj/cut	2.5
#when using global * * the cutoff should be the smallest of all possible pairs
pair_coeff	* *	1.0 1.0 2.5  #final 2.5 is redundant here; can override global
pair_modify	shift	yes

bond_style	fene
bond_coeff	1	30 1.5		1.0 1.0
special_bonds fene
  2 = max # of 1-2 neighbors
  6 = max # of special neighbors
  special bonds CPU = 0.00934911 secs

angle_coeff 	1 ${k}
angle_coeff 	1 5

fix	1	all npt	temp ${T} ${T}  1.0   iso ${p} ${p} 5.0 #todo: is this what f is?
fix	1	all npt	temp 1.2 ${T}  1.0   iso ${p} ${p} 5.0 
fix	1	all npt	temp 1.2 1.2  1.0   iso ${p} ${p} 5.0 
fix	1	all npt	temp 1.2 1.2  1.0   iso 0.0 ${p} 5.0 
fix	1	all npt	temp 1.2 1.2  1.0   iso 0.0 0.0 5.0 
#starting temperature/ending Temperature/Tdamp
fix cmvel all momentum 1000 linear 1 1 1

# todo: find a way to store energy between two different types of poly chains
thermo_style custom step ke pe etotal epair ebond eangle press temp lx vol
thermo 1000

dump 1 all xyz	100000	dump${k}.xyz
dump 1 all xyz	100000	dump5.xyz

restart 1000 k${k}t${T}p${p}f${f}n${n}npt-1.res k${k}t${T}p${p}f${f}n${n}npt-2.res
restart 1000 k5t${T}p${p}f${f}n${n}npt-1.res k${k}t${T}p${p}f${f}n${n}npt-2.res
restart 1000 k5t1.2p${p}f${f}n${n}npt-1.res k${k}t${T}p${p}f${f}n${n}npt-2.res
restart 1000 k5t1.2p0.0f${f}n${n}npt-1.res k${k}t${T}p${p}f${f}n${n}npt-2.res
restart 1000 k5t1.2p0.0f5n${n}npt-1.res k${k}t${T}p${p}f${f}n${n}npt-2.res
restart 1000 k5t1.2p0.0f5n8000npt-1.res k${k}t${T}p${p}f${f}n${n}npt-2.res
restart 1000 k5t1.2p0.0f5n8000npt-1.res k5t${T}p${p}f${f}n${n}npt-2.res
restart 1000 k5t1.2p0.0f5n8000npt-1.res k5t1.2p${p}f${f}n${n}npt-2.res
restart 1000 k5t1.2p0.0f5n8000npt-1.res k5t1.2p0.0f${f}n${n}npt-2.res
restart 1000 k5t1.2p0.0f5n8000npt-1.res k5t1.2p0.0f5n${n}npt-2.res
restart 1000 k5t1.2p0.0f5n8000npt-1.res k5t1.2p0.0f5n8000npt-2.res

#run_style respa 2 3 bond 1 pair 2
#timestep 0.006

timestep 0.002

run 10000000
Neighbor list info ...
  update every 1 steps, delay 10 steps, check yes
  max neighbors/atom: 2000, page size: 100000
  master list distance cutoff = 2.8
  ghost atom cutoff = 2.8
  binsize = 1.4, bins = 15 15 15
  1 neighbor lists, perpetual/occasional/extra = 1 0 0
  (1) pair lj/cut, perpetual
      attributes: half, newton on
      pair build: half/bin/newton
      stencil: half/bin/3d/newton
      bin: standard
WARNING: Inconsistent image flags (../domain.cpp:785)
Per MPI rank memory allocation (min/avg/max) = 6.496 | 6.516 | 6.649 Mbytes
Step KinEng PotEng TotEng E_pair E_bond E_angle Press Temp Lx Volume 
       0   0.48448444    12.832801    13.317286   -5.6481987    18.329377   0.15162301   -1.5880033   0.32303001           20         8000 
    1000   0.71905912    12.835241      13.5543   -5.6774485    18.393457   0.11923248   0.22528643   0.47943268    19.859203    7832.2307 
    2000   0.90155091    13.064638    13.966189     -5.49185    18.447899   0.10858846    0.1704419   0.60110908     19.98373    7980.4915 
    3000     1.091256    13.389917    14.481173   -5.2292066    18.518906   0.10021768    0.2578289   0.72759495    20.185724    8224.9443 
    4000    1.3075847    13.759345     15.06693   -4.9048604    18.576233  0.087972619   0.25232221   0.87183214    20.444015    8544.7343 
    5000     1.516311    14.161531    15.677842   -4.5691586    18.649729  0.080960925   0.42216625    1.0110004    20.731561    8910.3753 
    6000    1.7347055    14.496077    16.230782   -4.2835281    18.702889  0.076715664   0.25369189    1.1566149    21.032624    9304.2283 
    7000    1.8461889    14.737715    16.583904   -4.0770506     18.73951  0.075256024    0.2569931    1.2309465    21.293284    9654.4593 
    8000    1.8243344    14.827741    16.652075   -3.9824152    18.735317  0.074839013   -0.0146135     1.216375    21.446881    9864.8935 
    9000    1.7857839    14.809007    16.594791    -3.982644    18.722637  0.069013713 -0.086564613    1.1906714    21.443681    9860.4783 
   10000    1.7802539    14.812952    16.593206   -3.9857257    18.729175  0.069502428  0.075359294    1.1869843    21.411226    9815.7752 
   11000    1.7995373    14.808222    16.607759   -3.9852026    18.722963  0.070461364  0.040777251    1.1998415    21.431835    9844.1472 
   12000     1.795904    14.809088    16.604992   -3.9911645    18.735753  0.064499255  -0.11051487     1.197419    21.423013    9831.9954 
   13000    1.7919074     14.78224    16.574148   -4.0070348    18.728815  0.060460043  -0.13745449    1.1947543    21.407174    9810.2036 
   14000    1.7955171    14.790057    16.585574    -3.996732    18.725356     0.061433 -0.039181149     1.197161    21.421586    9830.0309 
   15000    1.8124826    14.811258    16.623741   -3.9771066    18.726834  0.061530316 -0.021847953    1.2084728    21.431506    9843.6934 
   16000    1.8243459    14.788983    16.613329   -3.9914478    18.717578  0.062853413  0.046160808    1.2163826    21.426545     9836.859 
   17000    1.7969676    14.751733      16.5487    -4.026327    18.720005  0.058054657   0.04980884    1.1981282     21.40786     9811.147 
   18000    1.8015226     14.75491    16.556432   -4.0317189    18.731958   0.05467069  0.063881266    1.2011652    21.374699    9765.6245 
   19000    1.8072536    14.787748    16.595002   -4.0081747    18.742563  0.053360378   0.14103474    1.2049863    21.398796    9798.6896 
   20000    1.8091299    14.777714    16.586844   -3.9967355    18.717852  0.056597181  -0.04275603    1.2062374    21.428819    9839.9917 
   21000    1.7979938    14.777542    16.575536   -3.9993768    18.722167  0.054751863   0.24615945    1.1988124    21.398679    9798.5294 
   22000    1.8052998     14.78009     16.58539   -4.0076585    18.733813  0.053935745  -0.11598315    1.2036837    21.413618    9819.0657 
   23000    1.7917353    14.793844    16.585579   -3.9935351    18.733006   0.05437273 0.0065560458    1.1946395     21.41213    9817.0179 
   24000      1.79604    14.769705    16.565745   -4.0031566    18.719968   0.05289395  -0.11984679    1.1975097    21.425775    9835.7982 
   25000    1.8125365    14.788484     16.60102   -3.9857147    18.719477    0.0547219   0.14318422    1.2085087    21.406569     9809.372 
   26000    1.7810664    14.793704     16.57477   -3.9943226     18.73496  0.053066669 0.0034770335    1.1875261    21.413386    9818.7463 
   27000      1.80599    14.766647    16.572637   -4.0228998    18.733336  0.056210385  0.035053433    1.2041438    21.376278    9767.7888 
   28000    1.7742917    14.803976    16.578268     -3.98018    18.734161  0.049995207  0.082944806     1.183009    21.427553    9838.2469 
   29000    1.8096034    14.819702    16.629305   -3.9440788    18.714279  0.049501947 -0.087894851    1.2065531    21.478464    9908.5399 
   30000    1.7938842    14.828264    16.622148     -3.95721    18.735235  0.050239323 -0.021345362    1.1960723    21.464957    9889.8587 
   31000     1.788244    14.786154    16.574398   -4.0035888     18.73839  0.051353138  0.018274049    1.1923117    21.414871    9820.7895 
   32000    1.7820754    14.757007    16.539083   -4.0389043     18.74499  0.050921787   0.11719904    1.1881988    21.363338    9750.0607 
   33000    1.7808105    14.769703    16.550513   -4.0069418    18.726171  0.050473658  -0.12000604    1.1873554    21.405385    9807.7436 
   34000    1.8278179    14.801273    16.629091   -3.9928284    18.739508  0.054593239   0.12454358    1.2186976    21.404113    9805.9957 
   35000    1.7883528    14.747546    16.535899   -4.0161943    18.714675    0.0490658   0.12741312    1.1923843    21.406196    9808.8586 
   36000    1.7871752    14.754211    16.541387   -4.0272531    18.734277  0.047187529   0.12940947    1.1915991    21.366659    9754.6093 
   37000    1.8071958    14.801799    16.608994   -3.9776576    18.727916  0.051540649   -0.1111765    1.2049478    21.455015    9876.1218 
   38000    1.8132874    14.816608    16.629895   -3.9681342    18.733613  0.051128823   0.15103197    1.2090094    21.449165    9868.0459 
   39000    1.8021829    14.783901    16.586084   -3.9994367    18.732374  0.050964044 -0.017977014    1.2016054    21.400696    9801.3005 
   40000    1.7793377    14.757715    16.537053   -4.0253154    18.728876  0.054154893 -0.017877258    1.1863734    21.382548     9776.387 
   41000    1.8040579    14.761819    16.565877   -4.0196804    18.730471   0.05102889 -0.061999185    1.2028556     21.38612    9781.2874 
   42000     1.815379    14.794564    16.609943   -3.9807393    18.725704   0.04959932   0.10193855    1.2104039    21.445758    9863.3442 
   43000    1.7969183    14.804959    16.601877   -3.9834117    18.730746  0.057624062  -0.10440532    1.1980953    21.426348    9836.5871 
   44000    1.7965639    14.756087    16.552651   -4.0230337    18.729755  0.049366055 -0.047645321     1.197859     21.39587    9794.6713 
   45000    1.7703236     14.76243    16.532754   -4.0159855    18.729231  0.049184876 -0.075094415    1.1803633    21.404363    9806.3389 
   46000    1.8412248    14.780477    16.621701   -3.9957891    18.729219  0.047046951 -0.033392486    1.2276366    21.417223    9824.0254 
   47000    1.7845459    14.825195    16.609741   -3.9637654    18.739923   0.04903771  0.042515222     1.189846    21.465141    9890.1124 
   48000    1.7965563    14.771128    16.567684   -3.9980985    18.721764  0.047462784   0.23927009    1.1978539    21.399737    9799.9826 
   49000    1.7855029    14.782333    16.567836   -3.9881041    18.722963   0.04747353  0.070590433    1.1904841     21.43092    9842.8856 
   50000    1.8189049    14.780379    16.599284   -3.9866732    18.716876  0.050176441   0.11560259    1.2127549    21.424434    9833.9517 
   51000    1.7982214    14.794089     16.59231   -3.9852573    18.730781  0.048565863   0.11745109    1.1989641    21.445578    9863.0957 
   52000    1.8041469    14.770132    16.574279   -4.0093858    18.730386  0.049131484 0.0015727395     1.202915    21.399475     9799.623 
   53000    1.7723296    14.768765    16.541095    -3.998406    18.724332  0.042838777  0.018711445    1.1817008    21.417038    9823.7713 
   54000    1.8097038    14.790092    16.599795   -3.9877162    18.731107  0.046700977   -0.0318814      1.20662    21.419406    9827.0293 
   55000    1.7987133    14.826691    16.625404   -3.9563847    18.737932  0.045143395  -0.15830208    1.1992921    21.476526    9905.8575 
   56000    1.8125233    14.784314    16.596837    -3.987102    18.723718  0.047697464 -0.066324476    1.2084999    21.429154    9840.4523 
   57000    1.7731272    14.782478    16.555605   -3.9986626    18.731776  0.049365312   0.11673239    1.1822326    21.403507    9805.1624 
   58000    1.8090701    14.738756    16.547826   -4.0283643    18.721462  0.045658507   0.10676917    1.2061975    21.372763    9762.9716 
   59000    1.7808177    14.754071    16.534889   -4.0029378    18.710193  0.046816263 0.00076943186    1.1873602    21.421658    9830.1301 
   60000    1.8408421     14.78282    16.623662   -3.9876517    18.724728  0.045743894   0.26034378    1.2273815     21.41553    9821.6956 
   61000      1.77373     14.78531     16.55904   -4.0010906    18.737485  0.048915593  -0.11845561    1.1826345    21.416189    9822.6031 
   62000    1.8078573    14.748894    16.556751   -4.0252479     18.72433  0.049811923 -0.032698836    1.2053888    21.396762    9795.8966 
   63000    1.8202965    14.780097    16.600394   -3.9960853    18.727175  0.049007729   0.13554007    1.2136827    21.423429    9832.5677 
   64000    1.7978215    14.794303    16.592124   -3.9705724    18.721738  0.043137266 0.0054557195    1.1986975    21.448681    9867.3777 
   65000    1.8129504    14.751156    16.564107   -4.0311416    18.737505  0.044792959  0.040662746    1.2087847    21.386971    9782.4546 
   66000    1.7813569    14.763264    16.544621   -4.0050799    18.725508  0.042836208  0.019955026    1.1877198    21.406141    9808.7832 
   67000    1.8240584    14.784898    16.608956   -3.9926441    18.732463  0.045078684  0.019199634     1.216191    21.427581    9838.2865 
   68000    1.8154725    14.784066    16.599539   -3.9801522    18.717716   0.04650236 -0.066041305    1.2104663    21.465727    9890.9224 
   69000    1.8033738    14.776689    16.580063   -4.0141156    18.737098  0.053706608 -0.033308446    1.2023995    21.385055    9779.8255 
   70000    1.7915037    14.762632    16.554136   -3.9940681    18.706108  0.050592438 -0.022960556    1.1944851     21.44482    9862.0505 
   71000    1.8184635    14.805923    16.624386    -3.986562    18.742432  0.050053151   0.14725318    1.2124606    21.413601    9819.0425 
   72000    1.7671196    14.800492    16.567612   -3.9663731    18.718633  0.048232734 -0.038292695     1.178227     21.47941    9909.8488 
   73000    1.8100362    14.798369    16.608405   -3.9929517    18.737965  0.053355576   0.20274929    1.2068417    21.407811    9811.0791 
   74000    1.7889301    14.788281    16.577211   -3.9886827    18.731259  0.045704457    0.1906591    1.1927692    21.436776    9850.9573 
   75000    1.8132809     14.76419    16.577471   -3.9998113    18.713086  0.050915065  0.086181952     1.209005    21.410213    9814.3821 
   76000    1.8018601    14.776451    16.578311   -3.9901481    18.717311  0.049287446 0.0028700264    1.2013903    21.425374    9835.2466 
   77000    1.8008501    14.784686    16.585536   -3.9812335    18.715314  0.050605644 -0.094181977    1.2007168    21.440602    9856.2326 
   78000    1.7891686    14.821911     16.61108   -3.9600434    18.737642  0.044312633   0.14187385    1.1929282    21.452557    9872.7285 
   79000    1.7901347    14.793058    16.583192   -3.9908814     18.74018  0.043759591    0.0249055    1.1935723    21.429156    9840.4553 
   80000    1.7815274    14.771118    16.552645   -3.9972924    18.721803  0.046607538 -0.0035820112    1.1878334    21.411077     9815.571 
   81000    1.7936527    14.783073    16.576726   -4.0085438    18.741313  0.050303794  0.050833345     1.195918    21.379432     9772.113 
   82000    1.7999518    14.765953    16.565904   -3.9934914    18.711477  0.047966879  -0.14865098    1.2001179    21.433088    9845.8732 
   83000    1.8160866    14.789796    16.605883   -3.9865559    18.733456  0.042895996  0.024713469    1.2108758    21.441186    9857.0375 
   84000    1.7661827     14.78223    16.548413   -3.9748444    18.714599  0.042475484   0.14312529    1.1776023    21.445361    9862.7973 
   85000    1.8060071    14.773709    16.579716   -4.0026308    18.725869  0.050471342   0.14752295    1.2041553    21.402228    9803.4049 
   86000    1.7650001    14.748322    16.513323   -4.0048161    18.703529  0.049609849 -0.037541969    1.1768138    21.417741    9824.7379 
   87000     1.805483    14.753811    16.559294   -4.0238071    18.732011  0.045607032  -0.13183807    1.2038058    21.398001    9797.5985 
   88000    1.8195847    14.782254    16.601839   -3.9882524    18.724618  0.045888603  -0.11892612    1.2132081    21.446041    9863.7356 
   89000    1.8087963    14.780346    16.589142   -3.9943094    18.730227  0.044428472  -0.12400661     1.206015    21.426519    9836.8226 
   90000    1.7920685     14.77567    16.567739   -3.9996565    18.728292  0.047035034 -0.012171538    1.1948617    21.401635    9802.5903 
   91000    1.7882837    14.732687     16.52097   -4.0232503    18.710586  0.045350776 -0.047791938    1.1923382    21.379464    9772.1573 
   92000    1.7933659    14.778637    16.572003   -3.9948317    18.726255  0.047213268  0.067986903    1.1957267    21.414593    9820.4067 
   93000    1.8003959    14.794049    