8000
Atoms. Timestep: 4600000
1 -7.29037 2.81297 -8.26241
1 -7.01473 3.70526 -8.44515
1 -7.32866 4.38978 -7.82381
1 -8.18893 4.09291 -7.52509
1 -8.66187 4.80443 -7.83498
1 -9.58865 5.00803 -8.07921
1 -9.1276 5.79415 -7.68641
1 -9.16794 6.54781 -7.01806
1 -8.91492 6.56929 -6.03555
1 -9.72758 6.28858 -5.59106
1 9.57313 -5.8534 -6.42374
1 10.1353 -5.27249 -5.85779
1 -9.8811 -5.24108 -5.65198
1 -9.62194 -4.96365 -4.75386
1 -9.52621 -3.9725 -4.70968
1 -9.56079 -3.19859 -5.30115
1 -9.22431 -2.30872 -5.30674
1 -8.28812 -2.10899 -5.16168
1 -7.60656 -2.48647 -5.72023
1 -8.26087 -3.2091 -5.82948
1 9.64056 9.88315 -0.361147
1 9.2563 9.15963 0.104288
1 8.45679 9.34376 0.504421
1 8.08096 9.1917 -0.403463
1 8.51017 9.98849 -0.334061
1 7.71311 10.2294 -0.768379
1 7.00612 9.91862 -0.165457
1 6.18298 10.1992 0.243191
1 6.03771 9.63042 -0.488609
1 6.27156 8.94219 -1.10076
1 3.60032 0.409383 -4.37926
1 4.1483 -0.268213 -3.92166
1 4.85556 -0.381883 -4.63016
1 4.9352 -1.16126 -4.08006
1 4.80796 -2.09278 -4.29621
1 3.85863 -2.23577 -4.51609
1 3.43942 -3.07282 -4.57426
1 3.73825 -3.73577 -3.93378
1 4.12215 -4.41931 -3.37772
1 4.64204 -4.34524 -2.48721
1 -10.4566 -0.705822 -7.76003
1 -10.3681 0.240898 -8.08766
1 -10.0176 0.409169 -7.20065
1 -9.64603 -0.417303 -7.01819
1 -9.46637 -0.494886 -8.04809
1 -8.77965 -0.928868 -8.62433
1 -9.05325 -1.75261 -8.24002
1 -9.56789 -2.01664 -8.97505
1 -9.99619 -2.11567 -9.78985
1 -10.1409 -1.56746 10.4161
1 -8.37116 -6.44588 -4.53655
1 -7.58954 -5.90659 -4.37595
1 -7.82651 -5.07392 -4.09125
1 -8.57131 -5.21484 -4.69553
1 -9.222 -5.79661 -4.25413
1 -9.16087 -5.89752 -5.23648
1 -8.63758 -5.29141 -5.7215
1 -7.82396 -4.994 -5.36157
1 -7.97109 -4.25066 -5.93036
1 -7.36435 -4.5354 -6.59268
1 10.1199 8.37678 -5.16832
1 -9.97319 8.23725 -4.64704
1 -9.10513 8.5111 -4.96953
1 -9.2407 9.30991 -4.4549
1 -8.41729 9.20386 -4.01689
1 -8.60459 10.1356 -3.67332
1 -7.94025 9.89739 -3.01043
1 -7.25825 10.26 -2.39462
1 -6.69135 -10.0939 -2.84867
1 -7.66416 -10.0586 -3.2498
1 -2.11046 9.3291 5.80276
1 -1.44876 9.83891 6.33261
1 -0.645988 9.33136 6.3393
1 -1.14915 9.27311 7.16312
1 -1.92613 8.69306 6.877
1 -1.29873 8.41339 6.16197
1 -1.20781 8.68609 5.27057
1 -1.46753 7.79321 5.23815
1 -0.624306 7.70978 5.69284
1 0.307874 7.9394 5.80624
1 -4.27503 -1.4944 -2.73108
1 -3.57333 -0.919509 -2.44122
1 -4.09077 -0.469248 -3.14579
1 -4.19579 0.0646478 -2.35922
1 -4.80269 0.741892 -2.40191
1 -5.56638 0.718716 -1.74308
1 -5.78392 0.246722 -2.49235
1 -5.09052 -0.238941 -2.94397
1 -5.68977 -0.608456 -3.57907
1 -6.15914 -1.39034 -3.40822
1 -10.0198 -2.91361 7.36672
1 -9.28519 -2.68906 7.83912
1 -8.52099 -2.77201 7.31628
1 -7.77072 -2.42989 7.91395
1 -6.92612 -2.75803 7.57729
1 -6.88243 -3.67835 7.95964
1 -6.56209 -4.45494 8.44462
1 -6.3658 -4.40668 9.37824
1 -6.69444 -4.15503 10.2433
1 -6.12576 -3.77737 -10.0794
1 -3.19355 -8.45128 0.188434
1 -3.40221 -9.35697 -0.00605551
1 -3.75816 -10.1574 0.213352
1 -3.92099 9.9273 -0.209377
1 -4.83809 10.2781 -0.120058
1 -5.19776 10.2233 -1.0048
1 -5.62342 9.31629 -0.89556
1 -4.99703 8.99698 -0.20191
1 -5.19524 8.32857 -0.955639
1 -6.0042 7.91871 -0.659198
1 -1.92272 -8.84605 7.65401
1 -1.92805 -8.51929 6.73066
1 -2.77512 -8.70168 7.0733
1 -3.41971 -9.29709 7.39694
1 -3.26508 -9.61265 6.48308
1 -2.94669 -10.2368 7.12729
1 -2.40582 -9.90529 7.87339
1 -3.12126 -10.1185 8.46669
1 -3.95081 -9.71555 8.56205
1 -4.09614 -9.66637 9.49402
1 -2.22208 5.6791 -2.49088
1 -2.86535 5.31649 -1.79377
1 -2.6639 4.4319 -2.16412
1 -2.2524 4.52213 -3.0424
1 -2.69693 5.28894 -3.46363
1 -3.40875 4.95126 -2.89033
1 -3.50129 4.71412 -3.85081
1 -4.34781 5.12706 -3.97419
1 -4.86056 4.92396 -3.19106
1 -5.53615 5.22871 -3.81171
1 -0.747265 9.57565 4.27885
1 -1.01854 10.1897 4.99656
1 -1.79349 9.82398 4.62061
1 -2.21605 8.97046 4.83703
1 -2.40166 8.42564 5.57904
1 -2.88222 8.47371 6.37334
1 -2.787 9.30242 6.71862
1 -2.42139 9.11021 7.56213
1 -1.54772 9.19789 8.05079
1 -2.04123 8.77747 8.69487
1 -1.26366 3.21374 -4.27288
1 -0.783276 2.79216 -5.04751
1 -0.0459021 3.24715 -4.57117
1 0.0034664 2.23193 -4.66074
1 -0.182464 1.65324 -3.87857
1 -0.867374 2.38129 -3.97092
1 -0.371918 2.88693 -3.40944
1 0.192474 3.63761 -3.3869
1 0.799181 4.0316 -2.68921
1 1.39147 4.75686 -2.91697
1 -0.96906 4.71741 -0.768512
1 -0.480446 5.38601 -1.33735
1 0.0468437 4.86345 -0.733266
1 0.705661 4.36882 -0.31101
1 1.48051 4.47619 0.263034
1 2.08406 3.71492 -0.0162885
1 2.378 4.18366 0.72382
1 2.66538 4.64293 -0.0528096
1 1.9549 4.52179 -0.694723
1 1.39947 3.80946 -0.94394
1 5.48353 5.00205 -4.14112
1 4.85485 5.79943 -4.0276
1 4.5203 5.33323 -4.80481
1 3.60275 5.35207 -4.70839
1 3.76914 5.68967 -5.57582
1 3.06603 5.34486 -6.04142
1 2.09136 5.26929 -5.97459
1 1.96564 4.48527 -5.43953
1 2.91221 4.59468 -5.31048
1 2.72258 4.47703 -4.33574
1 4.3848 7.56878 0.66564
1 4.81906 7.24226 1.46651
1 4.94324 7.26003 2.41093
1 5.59377 7.83616 1.95088
1 5.65813 7.86882 2.88596
1 5.94229 8.28403 3.7262
1 6.76773 8.68332 3.38047
1 6.66477 8.18953 2.59739
1 7.05493 8.34402 1.72463
1 7.28179 7.51708 2.15372
1 1.24119 9.60817 9.10355
1 0.349188 9.29324 8.95681
1 -0.488747 9.33253 9.33617
1 -0.430449 9.89195 8.52347
1 0.0823943 10.4425 7.99003
1 0.635806 -10.2553 8.73732
1 0.987169 -9.52201 9.22362
1 0.347452 -8.78174 9.45978
1 0.400076 -8.50197 10.3629
1 -0.39054 -9.07541 10.4148
1 -8.16026 4.4606 8.03234
1 -8.40967 3.50874 8.08661
1 -7.68758 3.31172 8.69496
1 -8.07748 2.45693 8.88872
1 -7.56175 2.85905 9.58911
1 -7.16687 3.72701 9.545
1 -8.09715 3.95377 9.4793
1 -7.52536 4.4188 8.77408
1 -7.03456 4.00052 8.07119
1 -7.4432 4.16263 7.22699
1 4.80055 9.99066 2.38217
1 4.6951 10.1349 1.41042
1 3.77583 10.3938 1.45747
1 3.16761 -10.2999 0.769723
1 2.79722 10.0514 1.4615
1 2.97022 9.06637 1.66078
1 2.87955 8.66629 2.48926
1 2.67599 7.71048 2.44473
1 1.90917 8.18505 2.48335
1 2.02109 9.02122 2.06342
1 -10.0642 0.253128 -3.96082
1 10.1391 0.516455 -4.50709
1 10.1892 -0.017365 -5.29141
1 -9.85471 -0.158895 -4.88802
1 -9.82504 0.728 -5.20127
1 -9.70102 0.365362 -6.15058
1 10.4331 0.889912 -6.3721
1 -10.0643 1.5685 -6.83893
1 -9.62862 1.4956 -5.98182
1 -9.14091 2.25996 -5.59714
1 0.797481 -7.96187 9.01728
1 0.395278 -7.06505 8.80441
1 -0.0880619 -7.33966 9.57472
1 0.783992 -6.95126 9.83244
1 0.159296 -7.00596 -10.3289
1 -0.367349 -7.07542 -9.53063
1 -1.33562 -7.00741 -9.42116
1 -1.77929 -6.19426 -9.74488
1 -2.55517 -5.99203 -10.3717
1 -2.97839 -6.15982 -9.54811
1 1.03997 4.8834 -8.26328
1 1.1564 4.68209 -9.19248
1 0.959438 4.40832 -10.1508
1 0.869493 5.41475 -10.3197
1 0.398807 5.86204 -9.68699
1 0.952332 5.8212 -8.94052
1 0.202417 6.22254 -8.5089
1 -0.651604 6.01696 -8.76994
1 -0.680129 6.88789 -8.96232
1 0.0656109 7.42259 -8.62751
1 0.584674 -10.2328 1.79837
1 0.454645 -9.32477 1.92366
1 1.28474 -9.42931 1.42223
1 1.4021 -9.57752 2.36686
1 1.58832 10.4544 2.18177
1 2.08761 10.0411 2.84409
1 1.59341 9.23531 3.09897
1 0.816044 8.78413 2.74737
1 1.26691 8.17169 3.352
1 2.16396 8.19603 3.61007
1 -9.58358 2.06052 7.43201
1 -10.2417 1.42381 7.70873
1 9.87833 1.71894 8.08522
1 9.67466 0.803903 7.82298
1 8.85651 1.24555 7.62524
1 8.69491 0.303905 7.39481
1 8.9519 0.00420809 6.53675
1 8.25972 -0.636972 6.33812
1 8.78612 -1.11749 5.73735
1 8.55821 -1.8923 5.2054
1 -8.22353 6.3256 -9.53976
1 -8.77004 6.49054 -10.3976
1 -7.88974 6.88477 -10.4435
1 -7.54224 7.43307 -9.74652
1 -7.51287 7.27112 -8.8297
1 -7.04334 8.02511 -8.42611
1 -6.62647 8.89794 -8.20127
1 -7.04391 9.47174 -7.48902
1 -8.02044 9.57455 -7.64325
1 -8.23098 9.21296 -8.48584
1 1.14237 2.78589 3.07993
1 1.44895 3.6727 2.83918
1 1.75236 3.42825 3.76349
1 2.16895 2.77778 3.13558
1 2.96178 2.81889 3.668
1 3.02068 3.78087 3.72095
1 3.45678 4.42985 3.14092
1 2.8508 5.12788 3.32829
1 3.41598 5.50604 4.0535
1 3.74279 5.66107 3.16358
1 5.07925 1.97773 1.92096
1 4.69011 2.56285 2.57459
1 3.98104 2.0086 3.0309
1 3.73052 1.7188 2.19039
1 3.01341 1.21044 2.60052
1 2.91542 2.11965 2.86138
1 2.81992 2.44288 1.93216
1 1.94588 2.31992 2.18577
1 2.25716 3.26645 1.86617
1 2.50865 2.99798 0.952672
1 -0.860515 8.24277 -8.89
1 -0.616923 8.79468 -9.6521
1 -1.44561 8.79643 -10.1415
1 -1.24431 8.58434 9.85431
1 -2.20144 8.87733 9.76421
1 -2.19994 9.79955 9.88344
1 -2.24864 -10.1786 9.80883
1 -2.80902 -9.46155 9.49145
1 -3.46031 -8.92921 9.08184
1 -3.16319 -8.17758 9.60083
1 4.13374 4.10851 7.86988
1 3.53296 4.69003 8.48347
1 4.38285 4.86521 8.79427
1 4.35705 5.54898 9.51995
1 4.97035 6.26406 9.61561
1 5.39155 5.90452 8.79828
1 5.86115 6.62921 8.34429
1 6.60666 6.06403 8.25877
1 7.13458 5.33702 7.96781
1 7.22238 4.95427 7.09843
1 9.59839 -8.41158 -1.49931
1 9.43272 -8.87556 -0.712289
1 8.52053 -8.74702 -0.496958
1 7.74898 -8.97099 -0.948606
1 7.01109 -9.54138 -0.954771
1 6.62969 -8.87174 -0.362576
1 6.77977 -8.57348 -1.23929
1 7.34978 -8.50056 -1.98705
1 7.29668 -8.06811 -2.88411
1 8.09053 -7.87671 -2.40791
1 -0.221658 -3.59633 0.994701
1 0.159252 -3.59781 1.85512
1 0.592604 -3.72238 2.75905
1 0.634428 -4.65359 2.57116
1 0.797015 -4.73779 3.48954
1 -0.16406 -4.63155 3.34414
1 -0.412469 -3.91436 2.68995
1 -1.12238 -4.09582 3.33123
1 -1.29086 -5.03399 3.66103
1 -2.11092 -5.39194 3.77984
1 7.60637 0.0771682 7.27986
1 6.89017 0.740803 7.41434
1 6.12927 0.86661 6.83272
1 6.3869 1.40281 6.10997
1 5.9813 1.28749 5.22423
1 6.54203 1.26455 4.36894
1 6.9905 2.06609 3.97933
1 7.43206 2.0376 3.1534
1 6.56022 2.31602 2.89474
1 7.02164 2.9553 3.44865
1 -7.27793 1.6014 -6.53353
1 -7.52501 2.4601 -6.91986
1 -8.25956 2.95212 -7.27367
1 -8.16214 3.11504 -6.32589
1 -7.84578 3.98901 -6.42843
1 -6.9169 3.81945 -6.38101
1 -7.13332 3.54176 -7.25721
1 -6.66975 2.67944 -7.42439
1 -6.3414 1.87186 -7.0339
1 -6.48912 2.29862 -6.21299
1 5.83511 -1.54492 -1.65655
1 6.30347 -0.951568 -2.15114
1 6.49689 -1.85387 -2.38071
1 6.73331 -2.49759 -3.00657
1 6.96875 -3.07872 -3.75336
1 7.79414 -2.66111 -3.85198
1 7.93177 -3.23426 -3.14351
1 7.43532 -2.87245 -2.40336
1 7.60934 -1.95569 -2.03762
1 7.52574 -1.78483 -2.99387
1 -3.67328 10.2066 -5.08825
1 -4.21175 10.249 -4.31548
1 -3.69019 -9.90524 -4.45707
1 -3.56229 -10.297 -3.50864
1 -3.67089 -9.39043 -3.17783
1 -4.47095 -9.91189 -3.05084
1 -5.06809 -9.16791 -2.82787
1 -4.84673 -8.20816 -2.81603
1 -4.60124 -7.67501 -3.5576
1 -5.17583 -8.24856 -3.99985
1 -9.73799 1.27787 2.34856
1 10.3746 1.7302 2.12919
1 10.3706 2.6881 2.24472
1 9.80562 3.37103 1.86776
1 9.11586 2.85536 2.14206
1 9.27617 3.53503 2.75792
1 9.87241 4.16739 3.09948
1 -10.3816 3.88741 2.54412
1 -10.2421 3.79028 3.54634
1 -9.61753 4.32493 3.08641
1 -9.1045 -1.62918 5.80466
1 -8.61864 -1.76487 6.63565
1 -8.08387 -2.54725 6.42829
1 -7.41036 -1.97847 6.97898
1 -7.30037 -1.02661 6.89419
1 -7.68915 -0.463785 6.15698
1 -8.44476 -0.585024 6.74997
1 -8.97126 -0.709582 7.5733
1 -8.68981 -0.25001 8.37197
1 -8.84268 0.680341 8.58422
1 9.27387 7.25296 6.97865
1 9.14272 8.14492 6.69114
1 8.28579 7.83407 6.53116
1 8.33496 6.88418 6.6442
1 7.6241 6.47273 6.95367
1 7.69425 6.17334 7.84934
1 7.57292 7.03293 8.15843
1 6.68284 7.01958 7.75924
1 7.09822 7.36902 6.94398
1 7.38748 7.35712 6.03747
1 7.69546 -3.10033 4.56089
1 8.27472 -2.50093 4.09113
1 9.00035 -2.64671 3.45952
1 9.65387 -1.91182 3.543
1 8.84201 -1.68957 4.0264
1 8.91491 -0.999734 4.68904
1 8.59793 -0.214815 5.20818
1 7.8486 -0.73134 4.97641
1 7.22095 -0.0106897 4.61203
1 8.08112 0.267482 4.42227
1 9.12948 8.13717 -4.32385
1 8.93304 9.11202 -4.44566
1 8.45624 8.47858 -5.00013
1 7.88648 8.17821 -4.28812
1 7.73697 9.11098 -4.45946
1 7.70491 10.1196 -4.58867
1 7.32703 10.0746 -5.42903
1 7.24057 10.1583 -6.36751
1 7.88163 9.92164 -7.0532
1 8.22926 9.61904 -6.23266
1 -8.37835 -2.33144 -6.31404
1 -9.13653 -2.52008 -6.81271
1 -8.51227 -1.95159 -7.33923
1 -7.91771 -2.06863 -8.02515
1 -7.45548 -2.89174 -8.11989
1 -7.00206 -2.57901 -7.3569
1 -7.26898 -3.16303 -6.63148
1 -7.00492 -3.48838 -5.67756
1 -6.97904 -4.45492 -5.6229
1 -7.52626 -4.00327 -4.92042
1 -5.42473 5.78102 -1.89768
1 -5.24233 6.53446 -1.3741
1 -4.5463 5.88148 -1.10446
1 -3.78205 5.72826 -1.6758
1 -3.45089 5.16109 -0.936939
1 -3.05487 4.64641 -0.26312
1 -2.39681 5.0041 -0.867985
1 -2.2473 4.06929 -0.877569
1 -1.63172 3.95726 -0.170836
1 -1.12244 3.21504 0.235728
1 3.58497 -4.1247 -8.66368
1 3.72557 -4.89246 -8.11469
1 3.5331 -5.77945 -8.00802
1 4.48637 -5.72051 -7.95879
1 4.25448 -6.70762 -8.08199
1 4.30824 -6.43681 -7.13237
1 3.43007 -6.17487 -7.03179
1 3.08269 -5.27664 -7.11689
1 2.92103 -5.65472 -6.22361
1 3.78172 -5.58602 -5.89729
1 -9.89512 2.81551 3.93291
1 -9.31416 2.01195 3.98278
1 -10.0876 1.99187 4.61762
1 10.449 1.78304 3.78894
1 -10.2002 1.03351 4.3057
1 9.89574 0.791754 3.84821
1 10.1621 1.1017 2.95249
1 9.35342 1.02 2.40458
1 9.50538 1.47055 1.57487
1 9.76999 2.35186 1.42402
1 5.83256 4.16415 -8.51319
1 6.62611 4.26409 -8.03187
1 6.19191 5.0967 -8.16098
1 6.00771 4.77575 -7.26922
1 6.34429 3.86333 -6.97736
1 6.72911 2.96225 -6.80999
1 7.01287 3.21529 -7.69566
1 7.59669 2.45205 -7.50131
1 8.07448 3.01008 -8.12623
1 8.06633 2.99057 -9.04627
1 6.83964 4.88131 3.17106
1 5.92263 5.00603 2.78644
1 5.28548 4.27659 2.80594
1 5.4961 4.5113 3.73381
1 5.28997 4.02867 4.53241
1 6.19434 4.48377 4.45639
1 6.9033 3.98206 3.93636
1 6.22443 3.30551 4.20856
1 7.03942 2.93567 4.57742
1 7.85866 3.0457 5.06324
1 -7.91333 9.08961 4.585
1 -7.01827 9.20248 4.09776
1 -6.23086 9.24755 4.68189
1 -6.36172 8.33629 4.64193
1 -6.13599 7.97431 3.78693
1 -5.33323 7.85445 4.18426
1 -5.2541 6.85073 4.28446
1 -6.02875 7.20605 4.83454
1 -6.22892 7.36107 5.79614
1 -6.9071 7.98506 5.52005
1 8.67667 -2.07668 -10.4596
1 8.27819 -1.23649 -10.3555
1 8.7903 -1.15581 9.76256
1 8.49205 -0.403122 9.2112
1 9.07405 -0.140256 8.48207
1 9.08602 -1.04537 8.24819
1 9.42842 -1.98828 8.44596
1 8.44546 -1.9251 8.29187
1 8.58835 -2.05318 9.21196
1 7.92652 -2.50715 9.74444
1 10.009 6.81107 7.82697
1 -10.039 7.14948 8.16409
1 -9.45884 7.86376 7.89812
1 -8.8563 8.35074 7.40496
1 -8.01109 7.9365 7.28166
1 -7.8242 7.69223 8.18061
1 -7.19618 7.26131 7.58602
1 -6.26888 7.02553 7.48148
1 -6.73409 6.75376 8.24748
1 -6.72343 6.08624 7.58966
1 2.17896 -3.52454 -9.71696
1 2.07909 -2.76859 -9.20136
1 2.65511 -3.46525 -8.83871
1 2.39548 -3.6267 -7.9286
1 3.07849 -4.27575 -7.60954
1 2.71573 -4.16359 -6.74852
1 3.15582 -4.535 -5.99322
1 4.03741 -4.59481 -6.48222
1 4.15557 -5.4304 -6.88106
1 4.50106 -4.6142 -7.32185
1 4.91951 8.29744 -5.52807
1 4.33209 7.57194 -5.77939
1 4.1369 7.25994 -6.74425
1 3.75375 6.71531 -7.51529
1 2.91733 7.13611 -7.29778
1 2.50123 6.6777 -8.01828
1 1.9557 6.2636 -7.3753
1 1.14867 5.88061 -7.73746
1 0.536066 6.60277 -7.70163
1 1.07149 7.01013 -8.42357
1 -7.77457 9.64647 2.00045
1 -7.37318 -10.4358 2.1641
1 -6.51793 9.86208 2.19499
1 -6.22265 -10.1847 1.9841
1 -5.28785 -10.1552 2.01357
1 -4.79334 -9.55553 1.47019
1 -4.15227 -9.54784 2.23476
1 -3.93678 -8.81587 2.84994
1 -3.78834 -7.94759 2.61017
1 -3.81628 -7.35584 1.69453
1 0.925768 0.0536771 9.53924
1 1.64219 0.636393 9.94474
1 1.89993 0.969512 9.08003
1 2.41774 0.996175 8.19696
1 2.87696 1.58131 8.79595
1 3.49116 0.868968 8.61181
1 4.07906 1.41002 8.05453
1 3.94934 0.555507 7.58376
1 4.61043 -0.152166 7.60866
1 4.93492 0.616134 7.10901
1 -0.709146 -7.10737 8.37354
1 -0.857032 -7.93907 7.87888
1 -0.766687 -8.67826 7.29528
1 -0.0765746 -9.3211 7.27905
1 0.461342 -10.0729 6.96737
1 -0.085125 10.0247 6.93786
1 0.382073 9.88164 6.06958
1 -0.254649 -10.3629 5.79835
1 -0.216271 -9.90652 4.96325
1 -0.495729 -10.0806 4.02944
1 -3.81417 -6.18266 5.56684
1 -3.38019 -7.02151 5.3951
1 -3.18499 -6.84515 4.49013
1 -3.66314 -7.73422 4.60384
1 -3.87416 -7.71792 3.62388
1 -4.7931 -7.49774 3.31616
1 -4.41007 -6.98448 3.98417
1 -4.75125 -7.12572 4.91032
1 -5.0624 -7.64441 5.66157
1 -5.66831 -6.92492 5.36943
1 5.39575 8.70552 -1.77037
1 5.21697 9.26516 -1.01957
1 5.54384 9.91204 -1.64532
1 6.05492 9.29039 -2.19429
1 6.95425 9.556 -2.30865
1 6.44258 10.4212 -2.41807
1 5.91414 -9.68458 -2.67545
1 5.55799 -8.97644 -3.24435
1 6.31234 -8.38328 -3.32169
1 7.06239 -9.01243 -3.34932
1 7.15096 -7.66026 -8.75446
1 7.75125 -8.25353 -9.19713
1 7.07918 -7.84667 -9.77908
1 7.66883 -7.39546 -10.4286
1 7.56504 -7.16087 9.55369
1 7.36877 -7.60771 8.75277
1 6.77722 -8.32715 8.41702
1 6.19314 -8.12905 9.11732
1 5.49446 -7.73855 8.57007
1 5.43963 -8.76586 8.5064
1 4.8765 -5.01267 7.6228
1 4.44195 -4.94734 8.45945
1 5.13441 -4.27199 8.66372
1 4.582 -3.49151 8.5971
1 4.39149 -2.60091 8.74985
1 3.77924 -2.04939 9.19843
1 3.77173 -1.89223 8.25734
1 4.02224 -0.86494 8.17467
1 3.36756 -0.738804 8.84339
1 3.30875 -1.26855 9.70471
1 4.94235 -0.487026 8.64132
1 4.14169 0.0362639 8.78481
1 4.86336 0.650036 8.4651
1 5.1092 1.45089 7.90194
1 6.00475 1.32998 7.89201
1 6.62998 0.724815 8.38165
1 6.32939 1.09962 9.18755
1 6.63691 1.97436 9.05394
1 6.07591 2.49045 8.45788
1 6.2553 3.20789 9.05657
1 8.31822 -1.08091 1.81914
1 8.72883 -0.198192 2.12038
1 8.46762 -0.154466 1.21386
1 9.12928 0.560311 1.3035
1 8.37783 0.961181 1.73462
1 7.87769 0.948138 2.5406
1 7.01025 1.28568 2.38257
1 6.70503 0.6262 2.95289
1 6.7817 -0.257461 2.7286
1 6.7282 -1.12458 2.40214
1 4.73908 -1.05944 1.73438
1 4.82407 -0.858723 0.785322
1 5.29069 -0.295331 0.13728
1 5.09216 0.0520662 1.19023
1 4.86395 0.566126 1.95063
1 4.6207 1.25203 2.5924
1 4.20482 0.875114 3.36375
1 3.85611 0.679709 2.41742
1 3.35952 0.935899 1.60859
1 2.5355 1.44794 1.65237
1 -0.64567 6.3605 3.83212
1 -0.137371 5.61313 3.50941
1 -0.930096 5.35844 3.10857
1 -0.665251 4.67229 3.67624
1 0.119093 4.6695 4.20011
1 0.939364 5.04049 4.58472
1 1.34787 5.90889 4.93633
1 1.57502 6.61803 5.55969
1 1.61966 6.92752 4.6228
1 1.14919 7.76215 4.30815
1 4.00234 1.30127 -4.61152
1 4.43337 2.14675 -4.65814
1 4.35458 2.80037 -5.35569
1 3.75241 2.6136 -6.01637
1 3.75872 1.66038 -5.84219
1 4.48447 1.0936 -5.86658
1 3.88844 0.987487 -6.58698
1 3.74674 1.87728 -6.98452
1 4.05414 1.4371 -7.82917
1 4.35286 0.554039 -7.51527
1 -2.65149 0.625706 -4.52465
1 -2.87015 -0.332166 -4.24876
1 -2.90292 -0.700373 -3.36355
1 -3.21319 -1.55291 -3.09659
1 -3.17016 -2.18725 -3.79307
1 -2.48515 -2.64621 -4.22063
1 -2.78905 -2.23828 -5.05898
1 -3.31868 -3.06412 -4.98204
1 -3.17498 -2.8846 -5.90856
1 -2.75432 -2.30268 -6.51736
1 -7.66248 -8.11753 -9.19185
1 -7.71802 -7.73592 -8.29366
1 -8.6405 -7.56545 -8.07195
1 -9.05425 -6.73876 -7.9898
1 -8.84775 -5.83843 -8.40681
1 -9.29998 -5.33191 -7.72511
1 -10.2118 -5.21022 -7.97498
1 -10.0701 -6.11541 -8.16565
1 10.0289 -6.37086 -7.66998
1 -10.1124 -6.73229 -7.34407
1 7.63287 -4.84899 7.12759
1 8.13938 -4.15353 6.66845
1 8.62864 -4.33623 7.49681
1 8.78698 -5.02547 6.85252
1 9.12737 -5.92006 6.90675
1 8.8826 -5.49165 7.71205
1 8.36939 -6.32955 7.71034
1 8.04802 -5.80816 7.01334
1 7.12691 -5.94065 7.23687
1 6.33047 -6.37476 7.49265
1 -3.44058 -5.97896 8.80819
1 -3.00161 -5.71523 9.64568
1 -3.42318 -5.384 10.4604
1 -3.15014 -4.82654 -9.7728
1 -3.79595 -5.28343 -9.22726
1 -4.64148 -4.96928 -9.6408
1 -4.37005 -5.71363 -10.1871
1 -4.06571 -6.31835 -9.51035
1 -3.97398 -7.2155 -9.18483
1 -4.52269 -7.40583 -8.39043
1 -2.66925 8.81264 -6.20987
1 -2.54754 9.74078 -6.508
1 -3.48249 9.62373 -6.60402
1 -3.36499 10.3539 -7.23535
1 -2.42824 -10.3551 -7.16566
1 -2.2252 -10.1162 -6.25025
1 -1.5879 10.0753 -6.13729
1 -0.947903 9.57832 -5.72209
1 -1.59227 9.11896 -5.09473
1 -0.948461 8.40389 -5.09218
1 -8.44283 -5.22223 9.21678
1 -7.6643 -5.74123 9.12964
1 -6.74681 -5.35421 8.99561
1 -5.98657 -5.39978 8.43316
1 -5.26205 -5.28372 7.77368
1 -4.27972 -5.35982 7.82041
1 -4.55075 -4.47617 8.2171
1 -4.10342 -3.69041 8.61214
1 -3.30415 -3.13065 8.65504
1 -3.24268 -3.71582 9.39295
1 -4.47507 10.2308 10.0835
1 -5.0977 9.70553 -10.4308
1 -5.62785 9.85692 -9.64833
1 -5.71764 9.23212 -8.89505
1 -5.39999 8.36394 -9.2517
1 -6.16258 7.85708 -8.96067
1 -6.89728 8.39047 -9.35698
1 -6.84459 8.00075 -10.2242
1 -7.52745 8.73201 -10.1663
1 -6.67528 9.20501 -9.90783
1 0.278152 -6.65553 -3.99844
1 1.23372 -6.39653 -4.14946
1 1.88295 -6.17212 -4.8754
1 2.35196 -6.31846 -5.74514
1 1.35498 -6.52649 -5.66961
1 0.987095 -5.96284 -6.33504
1 0.345987 -6.40079 -6.91416
1 1.05642 -7.00674 -6.62587
1 1.55021 -7.68232 -6.20907
1 0.71816 -7.99103 -6.61632
1 -0.121345 -1.61586 -10.4197
1 0.628154 -1.05718 10.3665
1 1.525 -1.03973 -10.1721
1 1.40051 -0.338431 -9.56431
1 0.580373 -0.176704 -9.10081
1 0.622192 0.798162 -9.37917
1 0.331669 0.637343 -10.169
1 0.906087 1.41531 -10.1476
1 0.169523 1.96236 -9.82886
1 -0.709528 1.66731 -10.1672
1 6.96095 -6.65709 -2.84926
1 7.24749 -6.72997 -1.86884
1 7.76929 -5.92979 -2.01857
1 7.37556 -5.15334 -2.41507
1 7.71085 -5.73555 -3.14831
1 7.96321 -6.54132 -2.75619
1 8.57389 -6.31307 -3.42579
1 8.70644 -6.45037 -4.43931
1 8.90559 -6.25537 -5.32245
1 8.54226 -5.37474 -5.26374
1 -1.77397 7.14245 -2.68425
1 -0.840558 7.22279 -2.48252
1 -1.0439 6.58981 -3.22329
1 -1.46734 7.36228 -3.62091
1 -1.63056 8.12163 -4.28508
1 -1.69048 9.0633 -4.01527
1 -2.71295 8.98292 -4.09645
1 -2.81132 9.94379 -4.30605
1 -2.36606 10.3705 -5.07586
1 -2.62303 9.46535 -5.32627
1 -2.09194 -1.15875 6.63459
1 -1.17774 -1.15371 6.27825
1 -1.33969 -1.8279 5.67633
1 -2.13957 -2.3175 5.86735
1 -2.38221 -2.52228 6.8856
1 -3.09412 -3.13089 6.96072
1 -3.29801 -3.82971 7.57435
1 -3.09141 -4.76616 7.70883
1 -2.55307 -4.72908 8.50108
1 -3.45559 -4.80477 8.7727
1 5.79129 -4.63045 0.981367
1 5.73714 -4.74482 0.0411593
1 4.8804 -5.07823 -0.248238
1 4.22805 -5.41023 0.374509
1 3.26185 -5.47502 0.628368
1 3.39465 -5.5257 -0.348875
1 3.19767 -6.19502 -1.05077
1 2.86246 -5.75055 -1.85207
1 2.04362 -5.72424 -2.41529
1 1.30922 -6.02468 -3.02801
1 -5.81615 5.94871 -4.87921
1 -5.77103 6.69666 -5.53112
1 -5.2921 6.79275 -4.6739
1 -4.41667 6.50618 -5.02249
1 -4.00829 5.74373 -4.65547
1 -3.6603 6.11608 -3.77012
1 -3.29016 6.89022 -4.13479
1 -2.68974 6.4773 -3.48901
1 -2.49425 6.13377 -4.42202
1 -1.91979 6.84745 -4.27335
1 4.24744 -5.57767 6.44518
1 3.33911 -5.50435 6.63496
1 3.55921 -4.75898 6.11567
1 3.68746 -4.56215 7.0338
1 4.27658 -4.01279 6.46877
1 3.68725 -3.48737 5.84346
1 4.11192 -2.717 5.33882
1 4.42292 -1.86409 5.23515
1 5.09251 -1.81897 5.83357
1 5.06553 -2.77786 5.91696
1 7.28544 9.29283 -1.16157
1 7.0076 8.81596 -0.387582
1 6.74059 7.86938 -0.666421
1 6.84505 6.91185 -0.645666
1 7.84548 6.92998 -0.751296
1 8.68546 7.07597 -0.234126
1 9.46587 7.68801 -0.101452
1 10.0843 7.06758 0.328665
1 -10.242 7.69838 0.781052
1 -9.84982 6.90145 1.18327
1 -4.12402 8.45878 9.66365
1 -5.02716 8.56142 9.96747
1 -4.86848 9.35049 9.54609
1 -5.22638 9.22112 8.71199
1 -5.77404 9.87169 9.17177
1 -5.93058 9.16475 9.82754
1 -6.02292 8.60401 -10.3659
1 -5.85357 7.68494 -10.0409
1 -6.18866 6.9586 -9.46564
1 -5.9777 6.15511 -8.89329
1 -3.90436 -1.76545 0.0699621
1 -3.50171 -2.22989 -0.61669
1 -4.38297 -1.87432 -0.790928
1 -5.05986 -1.13288 -0.848591
1 -4.68987 -0.764169 0.029778
1 -5.57612 -0.744296 0.306831
1 -5.05171 -1.13636 1.02766
1 -4.5389 -0.320383 1.13775
1 -4.74872 0.556519 1.61024
1 -5.06071 1.42899 1.74689
1 -9.2698 -1.81026 3.66605
1 -8.4196 -1.58571 3.25247
1 -8.10235 -2.07447 4.05164
1 -8.73646 -2.84999 3.7602
1 -8.40476 -3.84467 3.87829
1 -8.06459 -4.62891 4.38274
1 -8.58482 -3.99772 4.98733
1 -7.82209 -3.41921 4.62129
1 -7.23815 -4.18926 4.73616
1 -7.42752 -4.13352 3.78617
1 -4.10954 8.59666 2.31035
1 -3.47305 9.15806 2.88146
1 -3.57422 8.18818 3.05926
1 -4.36841 7.81286 3.2268
1 -4.08949 8.12046 4.07888
1 -3.51978 7.42633 3.73589
1 -4.11682 6.91909 4.34157
1 -4.34278 7.57428 4.99065
1 -4.59752 7.54035 5.90072
1 -5.0207 6.94239 5.40304
1 2.5036 -6.40446 1.18555
1 3.35345 -6.63231 0.830886
1 3.6183 -7.55255 0.681812
1 3.15939 -8.18968 0.0829286
1 3.97831 -8.46753 0.511665
1 4.76235 -7.89289 0.734866
1 5.35294 -8.64949 0.682546
1 5.94089 -9.2054 1.23316
1 6.83754 -8.94384 1.45498
1 6.66393 -8.3803 2.16515
1 9.1283 1.45648 -3.72364
1 9.57979 2.06555 -3.07582
1 8.66223 2.26813 -3.19158
1 7.77179 1.91225 -3.01563
1 7.69661 2.82431 -3.21216
1 8.21391 3.12501 -3.95725
1 8.95844 3.37258 -4.49194
1 9.46744 2.81701 -3.93415
1 8.82851 2.21966 -4.30032
1 8.59359 1.37264 -4.78179
1 -5.61637 -1.50012 8.92059
1 -5.76501 -1.28957 8.0146
1 -6.78978 -1.31667 7.74438
1 -6.7667 -0.37839 7.67602
1 -6.36619 -0.474564 8.49513
1 -6.65417 -1.11704 9.20305
1 -6.07099 -0.551965 9.74582
1 -6.56745 -1.09985 10.3464
1 -6.02664 -1.75557 9.8956
1 -5.90382 -2.48241 9.38223
1 7.55235 -2.10975 4.82208
1 7.67948 -1.59826 3.97814
1 6.81845 -1.82383 3.63427
1 5.98181 -1.54007 4.07284
1 5.9345 -0.883811 3.3062
1 5.66725 -0.051443 2.84334
1 5.87394 -0.477177 2.02252
1 5.98368 0.363029 1.60772
1 6.07387 1.35989 1.42062
1 5.9064 1.54907 2.36912
1 9.83464 -0.552789 -2.12068
1 10.313 -1.38898 -2.40228
1 -10.3015 -1.75204 -3.28167
1 -9.60951 -1.90176 -2.67546
1 -9.35587 -1.13642 -2.10737
1 -8.88367 -1.94498 -1.86945
1 -9.16541 -2.81068 -2.05696
1 -9.57748 -3.67147 -2.29358
1 -10.4496 -3.2973 -2.4527
1 -10.3251 -2.46628 -1.95818
1 0.0877281 -6.26618 -5.74298
1 0.664552 -5.95721 -5.08099
1 -0.211418 -5.57604 -5.00434
1 -0.803103 -5.79823 -4.37448
1 -0.263603 -5.00173 -4.04992
1 0.368095 -5.67073 -4.03872
1 -0.0694864 -6.04095 -3.18151
1 0.110668 -5.43724 -2.44568
1 0.830849 -5.57936 -1.8284
1 0.0331723 -5.31526 -1.34942
1 8.81877 6.86572 3.6659
1 8.05724 7.28124 3.28544
1 8.55764 8.18538 3.18715
1 7.83177 8.36132 2.5186
1 7.82375 9.12416 3.12906
1 8.02915 9.99941 3.51768
1 8.00586 9.75834 4.52685
1 7.85353 -10.2802 4.28881
1 8.1064 -9.67908 5.02745
1 7.43435 -10.2904 5.30528
1 -7.13245 -5.10244 0.534423
1 -7.22087 -5.73627 1.22253
1 -7.09804 -4.91145 1.71592
1 -7.20659 -5.4371 2.55338
1 -7.30545 -6.01084 3.39085
1 -7.87866 -6.75302 3.2386
1 -8.44534 -6.57041 4.01144
1 -8.49575 -7.52648 3.91195
1 -7.60166 -7.19777 4.19669
1 -6.99126 -7.29927 4.96872
1 -6.14517 -4.745 -6.246
1 -6.27127 -4.17775 -7.00055
1 -5.95526 -3.34685 -7.29913
1 -6.86139 -3.66198 -7.6342
1 -6.16487 -3.82088 -8.25374
1 -5.46683 -4.15326 -8.85623
1 -4.48813 -4.17747 -8.81166
1 -4.08007 -3.65363 -8.08854
1 -3.16147 -4.10398 -8.17663
1 -2.30889 -3.94867 -7.81673
1 6.50773 -8.43404 0.521458
1 7.06335 -7.72128 0.843319
1 7.00026 -6.75883 0.734706
1 7.13814 -6.1761 -0.0442016
1 7.2244 -6.94741 -0.705927
1 7.47069 -7.63959 -1.2404
1 8.27836 -7.45148 -0.823271
1 7.87212 -7.14736 0.0938391
1 7.87222 -8.03956 -0.00877105
1 7.5019 -8.77005 0.506384
1 1.40663 -5.96111 1.41938
1 1.13306 -5.05995 1.27713
1 1.09255 -4.12398 1.17074
1 0.564879 -4.25031 0.447168
1 1.04136 -4.97629 0.0232129
1 0.966903 -4.99538 -0.873803
1 1.85824 -4.57248 -0.940688
1 1.93022 -4.98872 -1.80773
1 1.36774 -4.90391 -2.65328
1 2.26271 -5.01735 -2.99797
1 5.03628 2.43377 -1.79012
1 5.99801 2.52924 -1.65579
1 5.73564 2.38406 -0.709293
1 4.76703 2.69848 -0.833565
1 5.29973 3.34869 -1.33826
1 5.28365 3.87426 -0.4791
1 5.91368 3.18912 -0.0710912
1 6.18018 3.36494 0.865649
1 5.37351 3.94274 0.816076
1 4.5247 4.39137 0.470452
1 0.191575 -9.32126 8.43006
1 -0.684319 -9.74401 8.37002
1 -0.265184 -10.1373 9.10772
1 0.286438 -9.93488 9.83118
1 0.545591 -9.88909 -10.1323
1 1.17111 -9.27913 -10.3513
1 1.99633 -9.38604 10.0143
1 2.92644 -9.57539 9.72532
1 2.52761 -8.84418 9.33252
1 3.16802 -8.1105 9.43199
1 5.20108 3.14423 -8.20171
1 6.07111 2.97607 -8.50338
1 6.20422 3.1094 -9.44101
1 6.97717 2.74873 -9.10498
1 7.69845 2.56093 -9.83412
1 7.98652 2.74119 10.1251
1 7.3516 2.83024 9.43177
1 7.74021 2.01224 9.31642
1 8.05453 1.47886 8.5617
1 9.05523 1.38894 8.73616
1 7.63738 -2.8317 5.59272
1 7.65298 -2.75041 6.53023
1 8.49493 -2.63831 6.13313
1 8.19657 -1.78997 6.28451
1 7.41144 -1.66505 5.77616
1 6.44174 -1.42473 6.00012
1 5.97478 -0.615247 5.71158
1 6.04596 -0.538663 4.76641
1 6.41537 -0.0159221 4.0391
1 7.25483 0.0188069 3.59771
1 2.83014 1.33632 -10.1443
1 2.00977 1.91512 -10.3462
1 2.437 1.87231 9.7648
1 2.94561 0.976109 9.75863
1 2.71937 0.166127 9.37041
1 2.32245 -0.668121 9.17462
1 1.38868 -0.887672 9.33173
1 1.36711 -0.578993 8.40347
1 2.07192 -1.08552 7.98543
1 1.28237 -1.01201 7.40743
1 10.1729 -5.175 -1.48644
1 9.51947 -4.93212 -2.18003
1 9.5192 -5.59325 -2.89373
1 8.73404 -5.02949 -2.94291
1 8.29388 -4.26189 -2.6739
1 7.8651 -4.10998 -1.91598
1 8.48372 -4.57474 -1.35144
1 7.56612 -5.02595 -1.40964
1 7.54861 -5.02488 -0.417014
1 7.5002 -4.3627 0.295003
1 -9.28896 10.3043 3.82196
1 -8.34961 9.89087 3.69208
1 -8.13671 10.2141 2.84971
1 -7.48135 9.65639 3.31428
1 -7.97425 8.93984 2.93911
1 -7.77234 8.14999 2.40891
1 -7.38792 7.30434 2.27378
1 -6.646 7.89404 1.92302
1 -6.96882 8.77642 1.7962
1 -6.81731 8.66209 2.73548
1 -8.08815 4.41722 -8.59179
1 -9.01324 4.47902 -8.85372
1 -9.88216 4.11219 -8.70231
1 -10.3328 3.6828 -7.95095
1 10.2916 4.58097 -7.75931
1 9.73025 5.29842 -8.14318
1 9.05192 5.02778 -8.7501
1 9.72141 4.97106 -9.53592
1 9.31916 5.52434 -10.1632
1 8.60137 5.96743 -9.83762
1 5.27733 2.83805 -4.7161
1 6.00587 2.42479 -5.21442
1 6.4545 3.22814 -5.42829
1 5.87761 3.13065 -6.16403
1 5.97627 2.14879 -6.23297
1 6.50062 1.4139 -5.86482
1 6.48228 1.24444 -4.96242
1 6.66383 0.322564 -4.77236
1 6.38251 0.414582 -5.74227
1 6.19089 -0.542933 -5.65721
1 5.09939 -9.78818 1.93345
1 4.85564 -9.75091 0.959464
1 4.0955 -9.27209 1.2566
1 3.11964 -9.20037 1.49059
1 3.44239 -8.35633 1.80358
1 4.0313 -7.63272 2.11926
1 4.96483 -7.42508 1.96061
1 5.81995 -7.43293 2.40182
1 6.57503 -7.2597 1.84379
1 6.92409 -7.50077 2.72394
1 -9.18736 -3.82702 7.74078
1 -8.81272 -4.40873 8.45181
1 -9.14631 -5.32586 8.25622
1 -8.52096 -5.97302 7.97035
1 -7.99803 -5.19882 8.19464
1 -7.06271 -5.45807 8.0057
1 -6.56379 -5.50631 7.23763
1 -6.15903 -4.64104 7.33957
1 -6.60732 -3.97113 6.87966
1 -5.68717 -4.10956 6.67837
1 -9.98499 -3.99984 -7.81324
1 -9.03953 -4.14621 -7.74622
1 -8.1738 -3.86547 -8.0752
1 -8.04112 -4.48478 -8.8119
1 -7.90111 -5.30882 -8.39936
1 -7.24983 -5.50623 -9.14587
1 -7.62523 -6.29487 -8.82126
1 -8.36987 -6.89393 -8.92399
1 -9.23933 -6.64626 -9.06939
1 -8.5654 -5.99412 -9.42663
1 0.423608 3.08222 3.76172
1 -0.373327 3.48587 4.158
1 -0.634986 4.21068 4.79506
1 0.16782 4.31212 5.3868
1 -0.331735 3.92809 6.15488
1 -0.872779 4.58015 5.6741
1 -1.47469 5.1427 5.15531
1 -2.17479 5.70299 5.51492
1 -2.72217 5.1838 6.09981
1 -3.50691 5.64848 6.37526
1 -4.75092 6.43361 0.730721
1 -4.10852 6.82381 1.33752