8000
Atoms. Timestep: 0
1 9.07649 -3.44536 3.68464
1 9.36092 -2.5309 3.56643
1 9.74681 -1.69068 3.84918
1 10.4611 -1.0463 3.63302
1 -10.1602 -0.152468 3.38689
1 10.2636 -0.38607 2.6467
1 9.6322 -0.64968 1.99715
1 10.3876 -0.126064 1.6431
1 10.442 0.806054 1.86573
1 10.219 1.67675 1.71509
1 9.79534 -2.05078 9.98551
1 9.36582 -2.87257 9.56931
1 9.71983 -2.99771 -10.4666
1 8.92172 -3.57282 10.2016
1 8.79758 -4.41856 -10.3368
1 8.55649 -4.76659 -9.52108
1 7.72475 -4.51818 -9.23965
1 8.03446 -4.33002 -8.40099
1 8.11454 -3.36355 -8.54344
1 7.24515 -3.68882 -8.84144
1 -3.14397 5.80265 -8.29408
1 -4.09334 5.68328 -8.18614
1 -3.67273 4.79213 -7.9296
1 -3.74046 4.29576 -7.15534
1 -2.84136 4.64165 -7.28959
1 -1.92542 4.58361 -7.02409
1 -2.17232 3.77195 -6.60714
1 -2.91741 4.36377 -6.35157
1 -3.11443 4.79749 -5.51687
1 -4.04907 4.73369 -5.3673
1 8.02658 -9.6727 -1.81835
1 8.86454 -9.18735 -1.75674
1 8.4261 -8.70687 -2.47246
1 9.21599 -8.22395 -2.05746
1 8.99256 -7.31718 -2.21052
1 8.1579 -7.61451 -2.51865
1 7.62103 -7.12494 -1.83163
1 8.16853 -7.81644 -1.51893
1 7.34482 -8.28558 -1.3846
1 7.23398 -8.57288 -2.30334
1 7.44491 -3.88697 9.00312
1 7.45131 -4.90671 9.15217
1 7.94946 -4.50448 9.92941
1 8.58272 -4.96324 9.35483
1 8.36884 -4.24109 8.78546
1 9.14735 -3.81973 9.06106
1 9.64967 -4.58392 8.87365
1 -10.4689 -4.49109 9.34124
1 10.2539 -3.83573 9.97904
1 -10.2585 -3.5432 -10.1264
1 -6.03835 3.36404 -6.91401
1 -5.60163 2.96782 -6.1031
1 -5.18545 2.62266 -5.30019
1 -5.19967 3.36334 -4.64972
1 -4.5698 3.66969 -5.30921
1 -4.01506 3.42009 -4.50274
1 -3.62329 3.03059 -3.68848
1 -4.08961 2.2159 -3.71449
1 -4.9474 2.59615 -3.50443
1 -5.83756 2.59616 -3.81111
1 -0.450807 -9.75188 -8.05379
1 -0.842798 10.3032 -8.02739
1 -0.789853 -10.285 -7.13374
1 -0.581323 9.72562 -7.22489
1 0.340872 9.81743 -7.55627
1 0.45312 8.94731 -7.23692
1 0.993179 9.50421 -6.70665
1 1.59648 8.78713 -6.84598
1 1.43767 9.30594 -7.69251
1 0.886642 8.97068 -8.34247
1 -10.2967 -4.39679 0.219395
1 10.009 -4.41621 0.941761
1 -10.3282 -5.22616 1.16734
1 -9.40426 -5.27551 1.10347
1 -9.74528 -6.10335 1.45307
1 -10.1359 -5.57168 2.22319
1 -9.97116 -5.11461 3.04326
1 -9.30698 -4.61017 2.54849
1 -8.84762 -5.14007 3.14822
1 -9.06861 -5.64017 2.387
1 -4.98569 3.93884 6.6958
1 -5.70943 3.74838 6.18027
1 -5.83612 4.06525 5.31584
1 -5.55762 4.69083 4.67332
1 -5.69921 4.09166 4.00321
1 -6.34188 4.78926 3.79375
1 -7.32112 4.68877 3.81333
1 -7.78615 4.74933 4.65701
1 -8.17086 5.15725 3.91595
1 -8.87458 5.48428 3.32287
1 -2.95347 -10.4538 -2.01898
1 -2.90928 -10.3983 -2.98917
1 -2.16509 10.0279 -3.26962
1 -2.97472 9.78886 -3.73375
1 -2.76424 8.83697 -4.10821
1 -3.45876 8.27766 -4.0661
1 -3.18852 7.37621 -3.9592
1 -2.78275 7.85432 -3.20862
1 -2.38967 7.19472 -2.67271
1 -2.53629 6.47646 -3.2968
1 -8.68682 -1.10034 7.08217
1 -7.70671 -0.854652 7.29662
1 -6.882 -1.03173 7.75242
1 -6.08772 -0.84756 8.20794
1 -5.46113 -1.40955 7.64491
1 -4.55243 -1.39381 7.44361
1 -4.6007 -2.31312 7.55624
1 -4.71837 -1.75815 8.34746
1 -4.87307 -0.819886 8.39501
1 -5.01623 0.0599683 8.82766
1 -4.35688 -8.107 10.3556
1 -4.85322 -7.76016 -9.8431
1 -4.82969 -6.95562 -10.3863
1 -4.11201 -6.77957 -9.77889
1 -4.02832 -6.54641 -8.86582
1 -4.23967 -7.49683 -8.87272
1 -4.0857 -7.14712 -7.98284
1 -4.22719 -8.09067 -7.7731
1 -4.98164 -8.63752 -7.96528
1 -4.72238 -9.08917 -7.16109
1 9.3677 -1.03953 -7.09397
1 9.07428 -1.34908 -6.24552
1 9.58614 -1.8631 -5.66473
1 9.74803 -2.77915 -5.567
1 -10.4669 -3.17462 -6.01107
1 10.1532 -2.55351 -6.63454
1 10.1829 -1.61696 -6.5821
1 10.3459 -1.05386 -7.32089
1 9.84464 -1.52025 -7.95572
1 -10.4649 -2.07119 -7.51059
1 4.53262 9.78565 -4.18005
1 4.91415 9.50853 -5.00554
1 4.42309 8.8139 -5.34024
1 5.22069 8.31821 -5.11904
1 5.76466 8.62653 -5.81622
1 6.72155 8.69369 -5.69769
1 6.84801 9.46502 -5.18214
1 7.38789 9.10194 -4.51296
1 7.2642 9.7085 -3.80365
1 7.40186 9.07743 -3.17347
1 7.21129 1.91008 -1.95481
1 6.73772 2.49594 -2.52649
1 7.00381 3.36129 -2.4505
1 6.22021 3.19761 -1.96443
1 6.10524 2.25945 -1.614
1 6.04412 1.49811 -2.21353
1 5.80799 1.59416 -3.15035
1 6.62348 1.30565 -3.5658
1 7.03319 0.385931 -3.67475
1 7.76147 0.922353 -3.44096
1 -6.7765 -2.8363 -2.09027
1 -6.61197 -1.8694 -1.81118
1 -6.81625 -1.27314 -2.5104
1 -7.60398 -1.28171 -1.95627
1 -7.96431 -0.412054 -1.87112
1 -8.56501 -1.0795 -2.0224
1 -8.51851 -0.839836 -1.07938
1 -7.96698 -0.0710281 -0.864476
1 -7.85958 0.615573 -1.49915
1 -8.76329 0.38727 -1.57652
1 -3.9652 -5.81744 5.56771
1 -4.82076 -6.19814 5.69874
1 -4.2793 -6.95019 5.41482
1 -3.32974 -7.27267 5.54199
1 -3.241 -6.59868 6.31509
1 -2.76101 -6.38826 5.51554
1 -2.21963 -6.68514 6.29149
1 -2.45317 -6.45916 7.14024
1 -1.94299 -5.6988 6.91786
1 -2.75341 -5.79736 6.33467
1 -5.52289 -2.46317 8.20037
1 -5.52501 -2.18339 9.08724
1 -6.24352 -1.57392 8.95856
1 -6.79044 -0.926598 9.38077
1 -6.34386 -0.943091 10.2135
1 -5.7214 -1.09002 -10.0498
1 -4.94056 -1.15163 -9.3992
1 -5.19996 -2.08643 -9.43302
1 -4.26767 -1.96666 -9.5795
1 -3.89672 -2.84239 -9.59554
1 8.14962 -4.67345 1.71815
1 7.30278 -4.69503 1.20671
1 8.13869 -4.94677 0.718464
1 8.64339 -4.73862 -0.0396312
1 9.50835 -4.45812 0.0704944
1 9.36061 -4.50809 -0.878528
1 10.3455 -4.51236 -0.847319
1 -10.0552 -5.27359 -1.01926
1 -10.3084 -6.04733 -1.57555
1 9.74477 -6.4156 -1.41531
1 6.533 -9.03948 6.81832
1 5.80848 -8.6874 7.39409
1 5.06938 -9.3425 7.43009
1 4.90671 -8.45439 7.08073
1 3.94929 -8.40904 6.81527
1 4.08366 -9.33763 6.94615
1 3.58599 -9.0335 7.67699
1 2.95022 -9.5889 7.3165
1 3.17557 -9.42688 6.39063
1 3.2338 -9.60077 5.39852
1 -1.00363 8.98598 0.517029
1 -1.44666 9.41434 1.28419
1 -1.50517 9.33015 2.27891
1 -2.20741 8.97255 1.74302
1 -2.88113 8.81515 2.40045
1 -2.45534 9.40524 2.98814
1 -3.32078 9.36536 3.38634
1 -4.23059 9.47246 3.15725
1 -3.9996 9.7946 2.14036
1 -4.78553 10.0469 2.61038
1 -0.377995 8.45653 -3.51086
1 0.349935 8.45808 -4.14627
1 0.933137 8.91173 -4.80441
1 0.400981 9.45734 -5.45082
1 -0.507233 9.4006 -5.36589
1 -0.359783 9.38959 -4.33889
1 0.451395 9.7765 -3.96765
1 1.41336 9.86752 -4.00842
1 2.08044 9.17322 -4.154
1 1.91259 8.917 -5.02303
1 -3.68765 5.0002 -9.87372
1 -3.23694 4.60251 -9.10042
1 -2.46236 4.77951 -9.72712
1 -2.91608 4.4021 -10.4626
1 -2.17338 3.91816 10.1209
1 -1.5583 3.29121 9.78826
1 -2.14299 2.56042 10.0494
1 -2.91875 3.11734 10.207
1 -3.59323 2.92552 -10.1676
1 -3.12973 3.68116 -9.79273
1 8.3132 0.125373 7.11495
1 9.23815 -0.145928 7.04282
1 9.9405 -0.151492 6.30662
1 9.98469 -0.612346 5.51949
1 9.80454 -1.59078 5.58484
1 10.3619 -1.43476 4.78405
1 -9.82518 -2.04968 4.77495
1 -9.66821 -2.23013 5.74955
1 -9.39449 -1.65925 6.49201
1 -9.16315 -1.97557 7.3508
1 -4.62077 -6.17964 -5.06647
1 -4.47801 -5.25929 -5.403
1 -5.04423 -5.04409 -4.6532
1 -4.77921 -4.26042 -4.2847
1 -4.4779 -3.95007 -5.18206
1 -4.73771 -3.94206 -6.11471
1 -5.47783 -4.10343 -6.66009
1 -6.34425 -4.38481 -6.30797
1 -5.8429 -4.26696 -5.54732
1 -5.81457 -5.18726 -5.89794
1 8.51428 -3.29632 -1.99088
1 8.40756 -4.15988 -1.53985
1 9.02902 -4.27218 -2.27408
1 9.51202 -3.66062 -1.72115
1 9.84572 -2.79526 -1.62265
1 8.98664 -2.60781 -1.20029
1 9.48821 -1.9251 -0.896767
1 9.97924 -1.1848 -1.16926
1 10.1658 -1.39933 -0.257567
1 -10.0915 -1.92454 -0.570705
1 -7.38846 0.00399779 7.90396
1 -7.70848 0.267586 7.04689
1 -8.60416 -0.033408 7.16586
1 -8.23617 0.394773 7.99058
1 -9.04245 0.12168 8.4048
1 -8.39188 -0.57706 8.18395
1 -7.69524 -0.597411 8.83182
1 -7.90418 -0.922032 9.73035
1 -7.42947 -1.49669 10.3951
1 -6.74088 -1.94096 9.8683
1 -6.96505 4.13163 5.43567
1 -7.16082 4.92491 5.92147
1 -8.042 5.22076 6.25614
1 -8.46076 5.16591 5.44732
1 -8.65916 6.09793 5.24037
1 -9.10659 5.74872 4.42257
1 -9.5241 6.25813 3.66661
1 -10.3199 6.58083 3.44082
1 -9.76009 6.96339 2.72052
1 -9.68792 7.8167 3.12269
1 -6.36104 4.48545 -0.646407
1 -5.46164 4.68537 -0.998105
1 -5.35008 4.13454 -0.213822
1 -5.89743 3.39005 -0.414991
1 -6.15334 2.54731 -0.0778077
1 -6.59756 2.53592 0.810277
1 -5.67826 2.89072 0.888041
1 -5.73689 3.8603 0.649859
1 -6.26664 3.63983 1.46367
1 -6.08984 2.8287 1.81174
1 -2.91882 3.89297 4.71054
1 -3.06008 4.67657 4.10175
1 -2.80759 5.29598 3.40867
1 -1.92462 5.633 3.39235
1 -1.69213 6.49774 3.84444
1 -2.23219 6.2203 4.54942
1 -2.04001 7.11189 4.74708
1 -2.50535 7.07878 3.8635
1 -1.75645 7.66083 3.67191
1 -1.29458 7.19231 2.91247
1 10.1194 4.85907 -4.70857
1 9.72429 4.01806 -4.86057
1 10.0714 3.21461 -4.48614
1 10.4477 3.50527 -3.6185
1 -10.1411 4.07081 -4.29693
1 -9.84781 4.96135 -4.16764
1 10.4699 4.79863 -3.47913
1 -10.2861 5.61314 -3.01002
1 9.88285 6.31682 -2.69618
1 9.18485 6.78184 -3.14104
1 -8.2154 -10.134 -9.45812
1 -8.22445 -9.7343 -8.61458
1 -7.81604 -9.05819 -9.09922
1 -8.17601 -8.27804 -8.70471
1 -8.92614 -8.75996 -8.32558
1 -8.8684 -8.16204 -7.59521
1 -8.91308 -7.50666 -8.32938
1 -8.68874 -7.11207 -7.49712
1 -8.57078 -6.13687 -7.4738
1 -9.49442 -6.41471 -7.35363
1 -2.91213 1.95345 7.54457
1 -3.44645 1.77014 8.28662
1 -3.14662 2.25691 9.11611
1 -2.68684 3.09247 9.20002
1 -3.59477 3.40118 9.20085
1 -4.01298 3.85171 8.44075
1 -4.92145 3.93263 8.70022
1 -4.66784 3.55702 9.53872
1 -5.68562 3.40165 9.54289
1 -5.42502 2.83526 10.2434
1 -6.18005 -7.50178 -6.09624
1 -6.44354 -7.97333 -5.26991
1 -5.53197 -8.13882 -5.17316
1 -5.94053 -8.86325 -5.5811
1 -5.59703 -8.62908 -6.4093
1 -5.14474 -7.76749 -6.25308
1 -4.31097 -7.8594 -6.64142
1 -4.0343 -8.69619 -6.19107
1 -3.67621 -8.6862 -7.06819
1 -2.78215 -8.36554 -7.25027
1 3.80817 -9.99498 0.073322
1 3.4091 -9.13359 0.238707
1 3.27197 -8.49011 0.937735
1 3.0321 -7.93112 1.5949
1 2.87081 -7.06793 1.34371
1 3.53928 -6.36888 1.15578
1 3.66224 -6.89678 1.95896
1 2.97292 -6.34961 2.1512
1 2.07951 -6.49506 1.85315
1 2.33168 -5.54283 1.7961
1 7.98932 10.3349 4.68846
1 8.7156 9.80824 5.17199
1 7.97674 9.98435 5.76725
1 7.75526 -10.4634 6.581
1 7.95617 -9.89131 5.83981
1 8.80261 -9.60618 6.23616
1 8.52645 -9.64093 7.15235
1 7.75509 -10.1327 7.54912
1 7.49293 -9.27324 7.24644
1 6.84759 -8.98915 7.95733
1 -7.22948 -1.34559 0.911848
1 -6.61175 -0.673421 0.562828
1 -6.68088 -1.51397 0.0643072
1 -5.80053 -1.28638 0.361018
1 -5.33352 -1.60709 1.12727
1 -6.22539 -1.93439 1.1396
1 -5.99426 -1.74742 2.02433
1 -6.53152 -1.30255 2.67174
1 -6.98676 -0.996239 1.85829
1 -6.17854 -0.595114 1.58857
1 8.68358 -5.34773 -3.05818
1 8.44013 -6.0433 -3.63005
1 8.34809 -6.92245 -3.25093
1 7.92579 -7.6027 -3.75001
1 7.84538 -8.27868 -4.39806
1 6.94555 -7.80441 -4.43978
1 7.19922 -6.94588 -4.2792
1 6.4987 -6.73223 -4.88154
1 5.89166 -7.48989 -4.76637
1 4.91642 -7.29685 -4.87054
1 -7.62569 -1.12694 -7.60536
1 -8.41753 -1.06347 -8.08966
1 -8.65206 -1.69502 -7.42573
1 -8.38883 -1.50761 -6.57665
1 -7.89846 -1.23507 -5.75459
1 -7.51674 -0.549032 -6.35026
1 -7.78206 0.0431354 -5.65344
1 -7.58122 0.953712 -5.7681
1 -7.8136 1.70656 -6.31191
1 -8.36592 2.49555 -6.46969
1 -8.89385 -2.81419 -3.25437
1 -8.11571 -2.32293 -3.58732
1 -8.87602 -2.31197 -4.18763
1 -8.63145 -2.99325 -4.71974
1 -8.26879 -3.82001 -4.46685
1 -7.69272 -4.28882 -3.849
1 -6.69561 -4.26241 -3.83705
1 -6.67446 -4.49329 -4.80451
1 -5.92539 -4.71459 -4.15081
1 -5.8174 -5.10375 -3.27173
1 -3.99837 -6.1749 -4.11775
1 -4.11438 -5.90495 -3.20561
1 -4.87367 -5.31641 -3.51315
1 -3.95737 -5.14463 -3.9333
1 -3.54748 -4.36543 -3.583
1 -3.44558 -4.58384 -2.63615
1 -3.92833 -3.77437 -2.36755
1 -4.18431 -3.59379 -3.28816
1 -4.60054 -4.40822 -3.12168
1 -4.82439 -4.20445 -2.24161
1 0.734091 -6.50512 10.136
1 1.20587 -6.90241 9.4098
1 1.38588 -7.45562 10.2038
1 2.15124 -8.02818 10.0296
1 2.17666 -7.77821 -9.97375
1 2.4789 -7.19344 -9.31641
1 2.9343 -7.7377 -8.61813
1 3.16753 -7.70781 -7.68085
1 3.52651 -8.43985 -8.18685
1 2.9968 -9.25468 -8.32055
1 1.68684 4.09112 10.3799
1 1.34174 3.59427 -9.83979
1 1.32737 4.48384 -9.46638
1 0.95712 3.88681 -8.80312
1 0.344459 4.24419 -8.1805
1 1.16322 4.27513 -7.74669
1 0.757024 3.40657 -7.42795
1 -0.18805 3.5925 -7.5541
1 0.143772 3.14556 -8.35476
1 -0.121386 3.6899 -9.07559
1 -8.1535 4.43587 7.18003
1 -8.28755 4.27227 6.23077
1 -7.57506 3.67131 6.22473
1 -7.96368 2.82454 6.14923
1 -8.74924 3.32337 6.22888
1 -9.26802 3.96113 6.6672
1 -9.23556 4.61769 7.30523
1 -9.40833 5.55287 7.08386
1 -9.2991 5.40734 8.02647
1 -8.8052 5.79173 8.74861
1 -3.35675 -5.88119 -7.63747
1 -2.74617 -5.19982 -7.98589
1 -2.31083 -5.41568 -8.84532
1 -2.32714 -5.43565 -9.8418
1 -2.94804 -4.84592 -9.32874
1 -3.59685 -4.85638 -8.63182
1 -4.18472 -5.60084 -8.41387
1 -3.99374 -5.08847 -7.64998
1 -4.50807 -5.80138 -7.38742
1 -5.03168 -5.35383 -8.06501
1 7.57871 5.1681 -8.94198
1 8.36485 4.80806 -8.56471
1 8.69589 4.22754 -7.97005
1 8.36079 3.33128 -7.99755
1 8.21315 2.82219 -8.75028
1 7.68204 2.54968 -7.96088
1 6.72521 2.7048 -7.95343
1 5.94767 2.87119 -8.46395
1 6.3916 2.17293 -9.02116
1 7.27768 2.39842 -8.94413
1 -1.18024 -7.21872 -5.15747
1 -0.406873 -7.91684 -5.21742
1 -1.19275 -8.30962 -4.931
1 -0.675438 -9.14918 -4.97943
1 0.0204288 -9.57059 -4.53106
1 -0.184779 -9.85075 -3.68811
1 -0.632527 10.3969 -3.2213
1 0.302859 10.3972 -2.88555
1 0.358252 10.1206 -1.94468
1 -0.0530636 9.48182 -2.55864
1 2.99568 1.33683 6.5648
1 2.48748 1.88985 7.20118
1 1.56464 2.15992 7.10814
1 1.76871 1.2913 6.82006
1 1.33831 1.04316 7.65009
1 1.39834 0.767418 8.52576
1 1.71475 -0.185178 8.47196
1 1.22445 -0.942315 8.2689
1 0.565158 -0.426575 8.79466
1 0.217844 0.541568 8.83737
1 7.26709 -8.14478 9.4939
1 7.5833 -7.70943 8.69634
1 8.13276 -7.37341 9.42855
1 8.41489 -8.29299 9.54687
1 7.83175 -8.96148 9.21443
1 6.94841 -9.26887 9.08683
1 7.50481 -9.67034 8.49002
1 7.96793 -10.4728 8.7698
1 8.47112 10.0998 9.47518
1 9.25024 -10.4469 9.10947
1 4.50716 -10.1871 10.3125
1 4.85987 -9.50234 9.72803
1 3.94199 -9.30977 9.71957
1 4.23493 -9.17904 -10.3448
1 5.10709 -9.27391 -10.0055
1 4.70101 -8.97082 -9.25254
1 4.11363 -9.32863 -8.64737
1 4.08475 -9.56787 -7.72716
1 4.85706 -10.1914 -7.65612
1 4.96166 9.85961 -7.25307
1 -2.85907 9.70993 1.34769
1 -2.26504 10.2268 1.95841
1 -1.98247 10.2088 1.12002
1 -2.7885 -10.144 1.15449
1 -3.32777 10.4299 1.83507
1 -3.10169 -9.55235 1.96588
1 -3.97384 -9.73145 2.33213
1 -4.75142 -9.28191 2.88761
1 -4.3725 -8.85141 3.63514
1 -5.10186 -8.29692 3.24432
1 1.6457 1.22144 4.49547
1 0.847245 1.05832 4.99114
1 0.287432 1.38611 4.19122
1 0.754622 0.504042 3.96132
1 1.32243 1.14629 3.54355
1 1.88718 0.433103 3.34854
1 1.41779 -0.317871 3.04857
1 0.828919 -1.00849 3.31895
1 1.19445 -0.527807 4.03668
1 1.0857 -1.32298 4.66284
1 3.68086 -2.0877 8.11685
1 2.93299 -1.63751 7.6451
1 2.59573 -0.68349 7.56935
1 2.83884 0.20205 7.99211
1 3.52793 -0.178726 7.47038
1 3.79001 -0.968625 8.0529
1 3.33455 -1.39572 8.70703
1 3.20872 -0.579194 9.10836
1 2.37316 -1.10465 9.2614
1 2.37579 -0.241673 9.84252
1 7.90733 -6.1216 -2.72289
1 7.39709 -6.28062 -3.52759
1 7.0619 -7.08682 -3.18207
1 6.61537 -7.03242 -2.37247
1 5.82289 -6.65995 -2.80109
1 5.05258 -7.14647 -3.15555
1 4.30862 -7.53828 -3.64726
1 4.10326 -6.9232 -2.99188
1 3.7678 -6.23258 -2.37205
1 4.71883 -5.97291 -2.45624
1 6.78277 -9.80253 -8.99826
1 7.21631 -9.98545 -9.81551
1 6.52541 -9.41513 -10.0152
1 5.80774 -9.80769 -10.4141
1 5.68059 -10.4286 9.79826
1 6.16635 -9.69694 9.61586
1 5.59062 -8.95657 9.54001
1 4.79436 -8.37001 9.75781
1 4.04798 -8.2273 9.14617
1 3.23372 -8.38493 8.59629
1 0.929409 -9.75941 -3.46543
1 1.68794 -10.136 -3.8493
1 2.55451 -10.3981 -3.95352
1 3.39348 -10.2604 -3.37619
1 3.49471 -9.503 -3.87302
1 3.20609 -9.80945 -4.7714
1 3.4864 10.1786 -4.50616
1 3.98139 9.74487 -5.16038
1 3.83729 -10.3733 -5.58653
1 4.75849 -10.4217 -5.34355
1 -1.00156 3.1717 6.50213
1 -0.933696 2.98685 7.44687
1 -1.05138 2.04705 7.29108
1 -1.2984 1.10129 7.54306
1 -1.35814 1.68323 8.32177
1 -0.898617 1.39485 9.08305
1 -0.10519 1.82689 9.44635
1 0.600807 2.38271 9.04269
1 0.564486 2.46877 10.0425
1 1.31034 2.57275 -10.298
1 -6.12608 8.06651 -0.378643
1 -6.89864 7.89736 0.121533
1 -7.33028 8.36748 -0.582692
1 -6.83031 9.13887 -0.889621
1 -7.34463 9.63197 -1.48264
1 -6.95441 10.0791 -2.19829
1 -6.18793 9.71009 -1.65403
1 -5.48848 9.53883 -2.33512
1 -5.98205 10.2395 -2.69173
1 -6.41117 9.48818 -3.10727
1 -7.91861 10.4273 7.55951
1 -7.30045 10.2634 6.80049
1 -7.52681 -9.9709 6.23008
1 -8.18274 -9.42003 6.67926
1 -8.80338 -9.84835 7.32299
1 -9.58821 -10.1124 7.85235
1 -9.75881 -9.24212 7.66712
1 -9.26981 -9.31265 8.46426
1 -8.63084 -8.87738 7.86675
1 -8.08003 -9.59417 8.31117
1 3.01512 0.180441 6.00343
1 2.61204 0.967499 5.70681
1 3.60841 0.977319 5.66269
1 3.58627 1.75684 5.05836
1 4.25228 2.49712 5.01061
1 4.77478 1.76014 4.79847
1 4.21409 1.34468 4.19324
1 4.36479 0.458705 4.5396
1 4.10466 0.139342 5.41351
1 3.87162 -0.317214 6.22732
1 2.44551 1.32617 8.03297
1 3.26478 1.73133 7.91659
1 4.12378 1.67676 8.30346
1 4.75313 1.18361 7.75604
1 3.96592 0.68448 7.64404
1 4.44939 0.0595989 8.17123
1 4.27073 0.524355 8.92768
1 3.37321 0.896761 8.87689
1 2.9523 1.79223 8.84827
1 2.41677 2.54701 8.55727
1 6.4783 -4.82563 -2.30086
1 6.81283 -4.31991 -3.04909
1 7.25033 -3.74231 -3.65097
1 6.83212 -3.31803 -4.37646
1 6.40201 -3.34115 -3.48364
1 6.52883 -3.31035 -2.52905
1 5.91135 -3.93334 -2.76445
1 5.64368 -4.1321 -1.88348
1 6.50286 -3.85084 -1.47902
1 5.9565 -3.07525 -1.49846
1 -0.729737 5.76983 -7.02294
1 -0.0017636 6.29835 -7.33223
1 -0.117879 6.72675 -6.49691
1 -0.183129 7.28503 -7.31324
1 -0.978712 7.01442 -7.76735
1 -0.702402 7.4764 -8.56166
1 -0.761993 7.81211 -9.46784
1 -0.528418 7.26037 -10.2423
1 -1.07174 7.09854 9.90516
1 -1.97294 6.88841 9.74314
1 5.65038 -1.3412 -8.59034
1 4.80677 -1.38948 -9.17607
1 4.58368 -1.18121 -8.28076
1 4.09167 -1.28708 -7.42952
1 4.43691 -1.06399 -6.55031
1 4.49478 -2.01181 -6.1849
1 3.54346 -1.8869 -6.17558
1 3.70045 -2.79681 -5.89816
1 3.57624 -2.57561 -6.95262
1 2.6577 -2.90287 -6.79919
1 -6.10493 -4.62428 9.69174
1 -7.0128 -4.78687 10.0615
1 -7.27561 -4.54102 9.217
1 -6.59791 -4.97683 8.79605
1 -6.63601 -4.14675 8.34185
1 -6.10549 -3.65391 7.75833
1 -6.41266 -3.94512 6.96204
1 -6.94994 -4.71607 6.84671
1 -6.83076 -5.12987 7.73999
1 -7.5391 -4.63573 8.13829
1 -9.32817 -4.28921 -7.02544
1 -8.38435 -3.94464 -6.94628
1 -8.35932 -4.50465 -6.19016
1 -8.04855 -5.25388 -5.68688
1 -7.77638 -4.64267 -5.02212
1 -7.36758 -4.36326 -5.80873
1 -7.20255 -3.64329 -6.4916
1 -7.29521 -3.71229 -7.46393
1 -7.8636 -4.56549 -7.77169
1 -7.72927 -3.94236 -8.53166
1 0.691563 5.36728 -5.13556
1 -0.0692645 4.87557 -5.44418
1 -0.457804 4.92063 -4.55809
1 -0.828778 4.10086 -4.29443
1 -1.76331 3.80327 -4.34774
1 -1.98285 4.11333 -3.43946
1 -2.5914 4.29224 -2.73473
1 -2.68606 3.4573 -3.18092
1 -2.01304 3.09694 -3.73751
1 -1.20646 2.92081 -4.22393
1 6.15529 9.09593 -2.24498
1 6.65171 9.93236 -2.03777
1 6.94565 -10.2797 -1.54768
1 6.94278 9.9868 -0.903824
1 7.84426 9.7938 -1.2061
1 8.14938 8.93266 -1.50865
1 7.57155 9.26153 -2.17809
1 7.62951 10.2318 -2.27049
1 6.99873 -10.4155 -3.0307
1 6.53023 9.74197 -3.05243
1 -1.03097 6.92476 -0.845481
1 -0.662435 6.32695 -0.205876
1 -1.18703 5.79884 0.41378
1 -0.602056 5.69926 1.11875
1 -0.446818 5.75777 2.05355
1 -1.1853 5.12516 2.16984
1 -0.498256 4.46576 2.4305
1 -1.13897 4.66363 3.15796
1 -0.340965 4.9895 3.54891
1 0.329999 5.03702 2.84705
1 -9.99974 1.22301 0.96255
1 -10.0648 0.321445 0.909541
1 -9.28434 0.718886 0.447106
1 -9.37968 1.55104 -0.0398161
1 -9.74649 0.976922 -0.650022
1 -9.67136 1.12048 -1.64441
1 -10.3496 1.56698 -2.27382
1 10.2379 0.744378 -1.82823
1 9.62846 0.744915 -2.5777
1 9.87132 -0.120185 -3.08628
1 5.58946 10.412 3.33886
1 4.99122 10.3832 2.47517
1 5.46876 -10.05 1.86109
1 5.48065 -10.3471 0.916532
1 4.64684 -9.90252 0.835718
1 4.30788 -9.01331 0.631443
1 3.63312 -9.51105 1.12887
1 3.89354 -8.72136 1.67441
1 2.95362 -8.98228 1.80504
1 2.49018 -9.23777 0.930954
1 -9.88137 0.808869 -6.17154
1 -10.2846 0.0775929 -6.67878
1 9.88304 -0.0763936 -7.23004
1 9.85306 -0.469702 -6.34942
1 9.41871 0.286785 -6.02496
1 8.6499 -0.183956 -6.47674
1 7.9578 -0.799307 -6.35956
1 7.85181 -1.66398 -6.74495
1 7.50065 -1.85302 -7.59146
1 8.17144 -2.42529 -7.86552
1 4.84148 -4.41148 -6.3926
1 4.70022 -5.35714 -6.47086
1 4.25225 -5.75241 -7.18346
1 4.66522 -5.26598 -7.90023
1 4.03294 -4.8004 -8.33969
1 3.07277 -4.72946 -8.20938
1 3.49805 -3.87937 -8.0344
1 3.25899 -3.09585 -8.46792
1 4.18168 -2.96968 -8.4886
1 3.8342 -2.30543 -7.92792
1 -4.99022 -10.1968 7.79302
1 -5.09211 9.8435 8.15252
1 -4.40526 9.39653 7.73137
1 -4.73213 8.9171 8.41549
1 -3.89248 8.5819 8.14097
1 -2.96175 8.66201 8.47236
1 -2.26766 8.8265 9.04288
1 -2.98639 9.40989 9.18054
1 -2.17234 9.91176 9.4132
1 -2.33592 -10.269 8.90099
1 4.55887 4.85857 1.13386
1 5.47419 5.16718 1.09885
1 6.13884 4.48979 1.16059
1 6.48785 4.18029 1.99726
1 5.74988 4.80333 2.23617
1 6.36843 5.12974 2.93861
1 6.47513 6.11706 2.90414
1 5.84872 5.82322 2.24328
1 5.31731 5.4227 2.93009
1 4.98194 6.27743 2.65317
1 9.84486 -2.73781 1.96666
1 9.91651 -3.65755 1.71917
1 -10.202 -3.297 1.52729
1 -9.89239 -4.2156 1.65474
1 -9.38738 -4.22775 0.772261
1 -9.34199 -3.3687 1.11287
1 -9.26543 -3.59238 2.10191
1 -10.1606 -3.55175 2.6063
1 -9.88908 -3.99758 3.4665
1 10.263 -3.36979 3.70737
1 7.56291 2.87385 9.00325
1 8.19307 2.98979 9.72409
1 7.6352 3.27353 10.4506
1 6.98072 2.66613 10.0648
1 6.53807 1.81605 9.87115
1 5.87739 1.29703 10.2754
1 5.97721 0.34162 10.0859
1 5.7007 0.627561 9.23645
1 4.98544 0.646431 9.8372
1 5.26978 -0.238476 9.655
1 3.54904 -6.22793 -9.96211
1 4.07756 -5.52956 -10.2806
1 3.94835 -6.14864 9.94767
1 3.01733 -6.40991 9.94425
1 2.65177 -6.79995 -10.2435
1 2.18651 -6.97148 9.91373
1 2.38097 -7.3657 9.01413
1 3.03968 -6.77228 8.79726
1 3.8035 -7.15553 9.30501
1 3.16908 -7.87432 9.58576
1 6.465 -0.142472 8.08088
1 7.08976 0.338519 8.54169
1 7.60889 -0.408386 8.73126
1 7.87668 -1.14344 8.22855
1 8.43871 -0.458442 7.97578
1 8.62457 -0.264313 8.9496
1 7.97641 -0.0901991 9.66922
1 7.65165 -0.933329 9.98613
1 8.13262 -1.32155 9.21059
1 9.10866 -1.11338 9.1885
1 -9.88143 7.21055 10.4548
1 10.378 7.98899 -10.3986
1 10.1642 8.92659 -10.2775
1 -10.1559 9.08964 9.89214
1 -9.38865 8.5707 10.1795
1 -9.87887 7.8363 9.71861
1 -10.1072 7.34669 8.92095
1 -9.22951 7.07196 9.00214
1 -8.364 6.92606 9.45952
1 -8.97122 7.48951 9.95044
1 6.41318 -4.78134 3.06805
1 5.52628 -4.36054 3.04219
1 4.66504 -4.7941 2.93401
1 5.33329 -4.9485 2.25185
1 4.76779 -4.57758 1.57449
1 4.03093 -4.16892 2.0982
1 4.64616 -3.69475 2.6677
1 5.20938 -2.9694 2.39175
1 6.0511 -3.46575 2.32812
1 6.52656 -4.32987 2.11908
1 -2.51832 -7.93917 -6.17443
1 -1.77544 -7.88626 -5.63173
1 -1.25967 -7.28121 -6.16227
1 -1.57 -6.40504 -5.76858
1 -2.36978 -6.83713 -6.0347
1 -2.17255 -6.98687 -6.9665
1 -1.75192 -7.05138 -7.92853
1 -1.23568 -7.40043 -7.17053
1 -1.57904 -8.2402 -6.79841
1 -1.82225 -8.32307 -7.76777
1 5.27578 0.707787 -9.48032
1 6.17361 0.562901 -9.90703
1 6.77718 1.32861 -9.74592
1 7.32936 1.93349 -10.1632
1 8.08926 2.31738 -9.79325
1 8.01645 1.39193 -9.51258
1 8.13408 0.42896 -9.80137
1 8.03506 -0.517724 -9.90537
1 7.3648 -0.664805 -9.27135
1 6.66666 -0.253492 -8.67804
1 -6.76698 0.048322 -2.4569
1 -7.44152 0.5908 -2.90433
1 -8.30713 0.472045 -2.54733
1 -8.47077 1.25375 -3.08405
1 -8.28252 0.832511 -3.94537
1 -8.3957 0.654552 -4.9058
1 -8.78243 -0.059788 -4.34796
1 -8.8264 -0.0344884 -3.37811
1 -9.75186 0.411815 -3.49384
1 -10.3565 1.17472 -3.54489
1 -10.0106 -7.72592 -4.85342
1 -9.84558 -6.96802 -4.2365
1 10.1398 -6.8454 -4.16915
1 10.378 -5.97009 -4.51194
1 -9.62635 -5.89167 -4.64113
1 -10.1471 -5.25903 -5.16012
1 9.8974 -5.1029 -4.68772
1 9.81779 -4.56968 -3.89078
1 9.10883 -4.13535 -3.42727
1 8.37748 -3.52768 -3.75829
1 4.9619 -6.07112 10.0122
1 5.5594 -6.52177 -10.3282
1 5.0421 -6.06993 -9.71906
1 4.39652 -6.65978 -9.39503
1 4.00166 -5.81725 -9.1695
1 3.48697 -5.79015 -8.39385
1 3.10809 -6.36468 -9.03124
1 3.48791 -6.87355 -8.24511
1 4.047 -7.0295 -7.56282
1 4.52578 -6.47488 -8.2847
1 8.63496 -10.3398 -10.3289
1 9.49648 -10.3443 -9.8092
1 9.21809 9.73558 -9.57317
1 10.0484 9.36493 -9.09707
1 9.77477 8.43361 -9.18353
1 9.22755 7.64383 -9.05284
1 10.1025 7.18694 -9.07084
1 -9.92968 7.4108 -9.39063
1 -9.83984 6.50145 -9.67952
1 10.2595 6.67868 -9.99498
1 -5.06546 6.538 4.90861
1 -4.30625 6.30515 4.45081
1 -4.9486 6.66113 3.87431
1 -5.19958 7.49315 3.54696
1 -4.89481 6.85834 2.9108
1 -4.79766 5.90521 2.85646
1 -5.56066 5.39713 3.03261
1 -4.89611 5.25209 3.69945
1 -5.46766 5.78836 4.17515
1 -5.99698 6.01836 4.96202
1 3.0267 -8.35204 6.04833
1 3.78714 -7.84035 5.82663
1 3.5316 -8.5739 5.1728
1 4.41406 -8.84001 4.8322
1 5.22738 -8.84094 4.30897
1 5.6143 -9.71688 4.23184
1 6.43659 -9.74522 4.64256
1 6.42418 10.308 4.24584
1 6.43463 9.78743 3.4625
1 6.39016 9.12442 4.15285
1 -2.68473 -4.80151 0.433356
1 -3.3832 -4.18863 0.544905
1 -4.34135 -4.11286 0.56088
1 -4.04571 -4.37618 -0.392768
1 -3.09849 -4.2259 -0.582678
1 -2.9569 -4.49951 -1.44728
1 -2.78919 -5.43026 -1.79573
1 -1.81811 -5.34335 -1.653
1 -2.35595 -5.16873 -0.894133
1 -3.31874 -5.24645 -0.825021
1 6.20738 -10.2152 8.73445
1 6.2991 9.84031 8.92686
1 6.31657 9.24775 9.7415
1 6.19465 8.8815 8.81265
1 5.32315 8.92794 8.36002
1 5.69868 9.68039 7.96054
1 5.17636 9.64376 7.14665
1 5.56501 9.8291 6.25894
1 5.13772 10.3342 5.5589
1 6.05255 -10.3217 5.51138
1 -9.23408 -9.91292 2.72366
1 -8.37434 -9.50859 2.70426
1 -8.71195 -8.80995 3.27771
1 -9.32504 -8.26172 3.85257
1 -9.63686 -9.06971 4.28874
1 10.3119 -9.40235 4.14521
1 10.1584 -8.80528 3.3638
1 10.2302 -8.48691 2.45241
1 10.3895 -7.86835 1.72236
1 9.46497 -7.55745 1.93978
1 -0.170722 3.79632 -6.4744
1 -0.960069 3.51951 -6.86171
1 -1.47447 2.92574 -7.45457
1 -1.91247 3.67915 -7.81562
1 -2.73337 4.02541 -8.08904
1 -2.61319 3.24318 -8.70489
1 -1.76265 2.87663 -9.01657
1 -0.831832 3.00669 -9.33583
1 -0.530721 2.19326 -9.85928
1 -1.22747 2.73688 -10.1834
1 -6.07517 1.76001 -3.20658
1 -6.65551 0.994762 -3.31965
1 -6.33729 0.716252 -4.2231
1 -7.23669 0.466081 -4.29018
1 -6.79792 0.351394 -5.1182
1 -6.96452 -0.595815 -4.90635
1 -7.37231 -1.40169 -4.80853
1 -6.63659 -1.98463 -4.67543
1 -6.04121 -1.86178 -3.89466
1 -6.41801 -1.05262 -4.1523
1 -2.85281 0.542645 -6.66267
1 -2.4639 1.20027 -7.266
1 -2.6648 1.39125 -8.17945
1 -1.87657 1.65439 -8.47994
1 -2.27155 2.48024 -8.14684
1 -2.70636 2.24226 -7.29642
1 -2.11728 2.57743 -6.64993
1 -2.63099 3.05446 -5.95128
1 -3.13866 3.29866 -6.73882
1 -3.15401 3.11851 -7.68577
1 -5.35891 -9.4281 3.76258
1 -5.47235 -10.4002 3.40704
1 -6.3216 -10.0957 3.79516
1 -6.61187 -9.20121 3.53619
1 -6.02911 -8.72391 2.90997
1 -6.30716 -9.34517 2.20706
1 -6.25382 -10.1958 2.57737
1 -5.94458 -10.3172 1.62677
1 -5.1275 -10.0058 2.01973
1 -4.60097 10.273 1.47443
1 -1.1434 1.02647 5.55559
1 -0.441456 1.27898 4.9392
1 0.184941 1.65344 5.57651
1 1.00148 2.10087 5.29458
1 0.930942 2.23592 6.27017
1 1.05435 3.04952 5.7408
1 1.89852 3.35775 5.48005
1 2.63666 3.87394 5.75756
1 2.9674 4.68852 5.48095
1 2.84604 4.89805 4.55306
1 9.73971 -9.60342 -3.61574
1 -10.4503 -9.43021 -4.12801
1 10.3999 10.4737 -4.3125
1 10.1032 -9.98513 -5.0416
1 9.9275 -9.03484 -4.96079
1 -10.3931 -8.64878 -5.54707
1 -9.85985 -8.84329 -4.77057
1 10.4354 -8.40807 -4.16547
1 9.76752 -7.99561 -4.67468
1 8.9364 -8.32806 -4.3248
1 -10.1214 -3.11497 4.79645
1 -9.21008 -2.98122 4.81356
1 -8.66225 -2.13174 4.86616
1 -7.92342 -1.922 5.4563
1 -8.63193 -1.37988 5.658
1 -8.72219 -0.510747 5.98796
1 -9.15579 -0.0840954 5.23903
1 -9.03252 0.106744 4.34497
1 -9.43226 0.607442 3.63616
1 -9.00408 -0.0789791 3.20325
1 5.04527 7.62418 -0.876845
1 5.48319 8.10169 -0.0785557
1 6.0258 8.85613 -0.449081
1 6.12216 9.5418 -1.1929
1 5.91038 10.3848 -1.56424
1 5.21905 10.0622 -0.856661
1 4.99197 -10.2745 -0.203918
1 4.62686 -9.45294 -0.489927
1 5.46439 -9.19361 -0.190812
1 5.81425 -9.80986 -0.877781
1 0.178136 5.57905 -2.36736
1 -0.0549058 5.95178 -3.27663
1 -0.102236 6.59141 -4.01307
1 -0.0487367 5.89511 -4.71615
1 -0.910245 5.94176 -5.09226
1 -0.448426 5.91958 -5.93099
1 -1.19948 6.43909 -6.09208
1 -1.03032 7.22627 -6.58209
1 -1.74251 7.46406 -5.93297
1 -1.37356 7.03183 -5.09099
1 7.83655 -7.56254 6.3222
1 7.58097 -7.11727 7.14923
1 7.57206 -8.03156 7.27935
1 8.42546 -7.71691 7.68681
1 8.45892 -8.31884 8.38947
1 8.38646 -8.68846 7.53058
1 8.77429 -8.35492 6.70184
1 9.713 -8.52506 6.81261
1 -10.2602 -8.65647 6.60383
1 -10.3108 -7.69995 6.74044
1 -6.73933 1.6577 -2.14854
1 -6.50081 0.801915 -1.6999
1 -6.30909 0.603231 -0.839148
1 -5.4685 0.576114 -1.28296
1 -5.41885 0.691501 -0.335744
1 -4.82523 0.113019 0.183119
1 -5.22819 -0.620241 -0.260897
1 -4.7561 0.0318722 -0.85872
1 -4.50469 0.990344 -0.792733
1 -4.56694 1.15833 0.149967
1 6.80943 2.20998 1.33333
1 5.86747 2.32512 1.17548
1 5.0727 1.83685 1.58455
1 5.65907 1.22905 2.00676
1 6.30353 1.91624 2.20854
1 5.97284 2.56798 2.87107
1 5.99671 2.78612 3.77046
1 6.43122 3.66294 3.86853
1 7.32416 3.75872 3.51412
1 7.09372 4.52878 4.12496
1 -4.8324 -9.54327 -8.76104
1 -5.72122 -9.49144 -9.22281
1 -5.94703 -8.72713 -8.68637
1 -6.37625 -8.69225 -9.55911
1 -6.00712 -9.34739 -10.2041
1 -6.53823 -10.0594 -9.86161
1 -7.32102 -9.57518 -9.8955
1 -7.3432 -10.4651 -9.47202
1 -7.93614 9.83885 -8.93376
1 -8.67406 10.1374 -8.43876
1 -3.36308 -9.17335 3.07023
1 -2.84075 -9.45788 3.83678
1 -2.25983 -9.63167 4.56314
1 -2.10828 -9.3067 5.51363
1 -2.41007 -9.18449 6.45951
1 -2.0927 -9.57347 7.33325
1 -2.28076 -10.4538 7.71622
1 -1.73658 10.1267 6.87277
1 -1.19491 9.31972 6.73072
1 -0.76038 9.44989 5.84111
1 9.07756 1.57592 -1.47478
1 9.61997 1.78822 -2.32523
1 9.21554 2.57556 -2.61605
1 9.73001 3.37888 -2.53627
1 9.73305 4.31054 -2.71429
1 8.77058 4.35143 -2.76153
1 8.85205 3.55461 -3.24216
1 9.50058 4.06835 -3.70835
1 8.68169 4.50653 -3.97791
1 8.5234 4.25184 -4.92065
1 -9.05955 -8.40788 1.02814
1 -9.69248 -7.64759 1.10789
1 -10.3141 -6.98848 1.40128
1 -10.4178 -6.61163 2.33723
1 -9.48455 -6.83398 2.59683
1 -9.13951 -7.49061 2.00312
1 -8.34924 -7.01892 2.16174
1 -8.37869 -7.78856 2.78861
1 -8.93652 -7.31574 3.50674
1 -9.78471 -6.89089 3.56915
1 3.27027 -0.930281 3.46705
1 2.44119 -0.457107 3.47987
1 2.82484 -0.0906499 2.7091
1 2.93371 0.0300154 1.75949
1 2.6674 -0.942701 1.6483
1 2.01734 -1.66011 1.81401
1 1.25257 -1.07098 2.03594
1 1.9564 -0.407411 2.12342
1 2.18718 -1.16851 2.6113