8000
Atoms. Timestep: 0
1 3.91874 8.10025 -7.51914
1 4.87023 8.22762 -7.73228
1 5.72472 8.015 -7.45546
1 6.7227 7.94256 -7.44944
1 6.26055 7.48154 -8.15517
1 7.07088 7.43001 -8.62267
1 7.662 7.76499 -7.89958
1 8.12232 8.60769 -8.09757
1 8.8805 9.15026 -8.53064
1 9.01134 8.32308 -8.08733
1 1.75864 5.1719 3.03129
1 1.07177 4.93056 2.44387
1 1.73888 4.33191 2.12701
1 1.57778 3.40926 2.38229
1 2.25489 2.74673 2.43628
1 2.14476 2.10018 3.12486
1 1.80728 2.55958 3.95027
1 1.88961 3.5271 4.10885
1 1.20279 3.60949 4.79947
1 0.737797 3.9659 5.52297
1 2.67104 -0.733399 1.01522
1 2.33727 0.171039 1.00179
1 1.98009 0.734061 1.65435
1 1.61369 1.3945 2.14677
1 1.21051 1.30413 1.22058
1 0.689846 2.08835 0.963771
1 0.812857 2.95086 1.43579
1 1.83442 3.02033 1.47824
1 1.99798 3.50341 0.684741
1 2.94126 3.58144 0.75982
1 -5.18838 -3.25187 9.32744
1 -4.80963 -3.79745 8.63549
1 -4.94823 -4.00944 7.71345
1 -5.91942 -3.71569 7.79974
1 -5.74439 -4.56757 8.29432
1 -6.40381 -3.94917 8.67785
1 -5.79996 -4.22769 9.3246
1 -5.55314 -4.89295 9.93897
1 -6.13512 -5.2947 9.33141
1 -5.40803 -5.82987 9.5716
1 3.8753 6.3521 0.307337
1 4.64277 6.08271 -0.233025
1 4.39866 5.4147 0.489338
1 5.26545 5.26277 0.251257
1 5.32033 5.75174 1.06936
1 4.54709 6.08517 1.56421
1 3.64979 6.2887 1.34809
1 2.87962 6.47688 0.77945
1 1.98921 6.45953 1.24073
1 2.08659 7.41294 1.20044
1 6.52276 5.37319 -1.97618
1 5.7065 5.53441 -2.42977
1 5.46551 6.08314 -3.2714
1 4.78107 5.82888 -2.6361
1 4.29653 6.44092 -3.13091
1 3.60718 6.70273 -2.48711
1 3.33947 7.60022 -2.65268
1 2.59758 7.21088 -3.15655
1 2.04814 6.43368 -3.38603
1 1.5092 6.56699 -2.672
1 -6.73935 -9.1231 -2.43468
1 -6.30017 -9.37789 -1.64235
1 -6.35724 -9.64548 -0.765438
1 -6.8359 -10.2866 -0.225219
1 -7.37297 9.68265 -0.00199166
1 -8.35577 9.49534 0.2232
1 -8.80596 10.1252 -0.310575
1 -8.04443 -10.0512 -0.10937
1 -8.82012 -9.5726 -0.324437
1 -8.71817 -8.75524 0.149848
1 -7.05336 -1.60716 -2.30519
1 -7.25389 -1.10271 -1.48687
1 -8.16667 -1.25584 -1.81016
1 -8.54634 -0.904133 -2.66508
1 -8.74223 -0.347717 -1.91246
1 -9.66125 -0.294205 -2.18056
1 -9.21051 0.366314 -2.68148
1 -9.29375 -0.33864 -3.37544
1 -8.50672 -0.0675048 -3.76239
1 -9.06552 -0.156246 -4.48742
1 -0.957754 -3.35063 8.36472
1 -1.10965 -3.76012 7.54944
1 -0.28769 -4.27436 7.50032
1 -0.246896 -3.28953 7.48868
1 -0.0624813 -2.70896 6.74877
1 -0.0136281 -2.24713 5.8951
1 0.425695 -1.75261 6.59386
1 0.766187 -1.35115 5.80858
1 1.40211 -1.58629 5.13362
1 0.589048 -1.84263 4.67767
1 -6.9673 6.21913 -5.49318
1 -7.16878 6.75453 -6.20176
1 -6.4418 6.24983 -6.66018
1 -7.06753 5.62249 -6.43342
1 -7.6788 5.19777 -5.58478
1 -7.08433 4.41516 -5.66875
1 -6.90809 4.00433 -4.8304
1 -6.19269 4.3982 -4.32569
1 -5.78171 5.30098 -4.39507
1 -5.28795 6.01461 -3.93738
1 1.97989 6.65549 -8.90039
1 1.86177 7.23714 -9.606
1 1.63948 7.41385 10.2093
1 0.841323 7.92032 10.0272
1 0.846249 7.82795 -9.7329
1 0.492573 7.96667 -8.86572
1 1.02043 7.13014 -8.80759
1 0.913716 6.66903 -7.94097
1 0.968458 6.88884 -7.0112
1 1.16272 5.9619 -7.13534
1 9.88794 -8.31012 -8.00945
1 9.17304 -8.9096 -8.09449
1 9.46125 -8.58817 -8.97539
1 9.49372 -8.69804 -9.96294
1 9.40482 -7.78041 -10.1325
1 9.84448 -7.323 9.87619
1 9.29352 -8.06056 9.56593
1 10.1445 -8.13593 8.99372
1 -9.70705 -8.31314 8.58907
1 -10.2853 -7.93551 7.91241
1 -6.64248 -8.34068 -6.40707
1 -5.68042 -8.08902 -6.50086
1 -5.57255 -7.6433 -5.69216
1 -4.82414 -7.5543 -5.13531
1 -4.32735 -8.35256 -5.37345
1 -3.70031 -8.67192 -6.04252
1 -2.89226 -8.27452 -5.81111
1 -3.63033 -7.69203 -5.7545
1 -3.35455 -6.87803 -5.25534
1 -3.7286 -7.30705 -4.48273
1 -8.21514 2.63103 9.5683
1 -8.5974 1.8617 9.15402
1 -8.61801 2.04935 8.22079
1 -9.55866 2.02368 8.34754
1 -10.1188 1.75671 9.06669
1 10.0753 2.06146 8.38115
1 9.38045 2.00965 7.7122
1 8.73043 1.31343 7.81465
1 8.56611 1.46246 6.91015
1 8.79676 1.06159 6.06748
1 3.08729 -9.3434 5.85836
1 3.70445 -8.98119 5.26189
1 3.6616 -8.00619 5.35943
1 3.83942 -8.09973 4.46137
1 4.75593 -8.33821 4.09092
1 4.27765 -7.73337 3.50679
1 4.18585 -6.76115 3.45427
1 4.15496 -6.91275 4.39957
1 4.70482 -7.39034 5.07616
1 5.41013 -7.37772 5.82385
1 -1.6931 -5.35971 -6.79363
1 -2.26957 -5.78169 -6.1984
1 -1.71054 -6.06675 -5.48497
1 -1.29694 -5.27843 -5.67844
1 -1.3483 -5.12135 -4.67161
1 -0.812291 -4.51219 -5.09074
1 -1.21794 -4.02168 -4.41237
1 -0.719483 -3.48263 -5.09821
1 -0.801363 -2.65052 -4.61612
1 -1.20277 -1.84678 -4.16072
1 -2.63667 7.27103 7.79417
1 -3.23066 7.39547 8.52365
1 -3.79348 6.91022 7.92773
1 -3.96697 6.07255 7.55101
1 -4.77071 6.12502 7.97053
1 -5.55015 5.90578 7.50432
1 -6.19858 6.20265 8.11849
1 -6.71412 5.95533 7.38351
1 -7.27682 6.50162 6.91929
1 -8.13698 6.07814 6.81975
1 -4.48229 -2.96703 3.12931
1 -4.24482 -2.49076 3.88391
1 -5.05442 -2.53091 4.29104
1 -5.45905 -2.06056 3.48808
1 -4.98884 -1.80525 2.68949
1 -5.97515 -1.51158 2.66973
1 -5.36452 -0.930701 3.17793
1 -6.19116 -0.965489 3.67352
1 -5.71119 -1.47817 4.32402
1 -5.53038 -1.26045 5.22391
1 2.75718 -0.240519 8.83833
1 2.92002 0.287675 9.59675
1 3.26249 0.76287 8.81134
1 3.01352 1.62125 9.08998
1 2.14309 1.51381 9.46859
1 1.79335 0.750995 9.94854
1 1.06107 0.274862 9.68257
1 0.876465 1.18754 9.90901
1 1.39937 2.0687 9.98971
1 0.615993 2.09084 -10.2589
1 8.42881 -1.59228 -2.1461
1 8.07145 -1.67652 -1.18644
1 7.86109 -0.747189 -1.06849
1 7.27299 -0.100849 -1.4553
1 7.41682 -0.01821 -0.51432
1 8.01432 0.62533 -0.89586
1 8.61226 -0.0716188 -0.887455
1 8.84546 0.485135 -0.076311
1 8.49916 -0.328929 0.180811
1 7.74509 0.0508038 0.587345
1 8.37649 8.91481 1.21107
1 8.67364 9.49669 1.89751
1 9.26378 10.025 2.4762
1 10.1069 10.2289 2.94992
1 9.76569 9.48716 3.38749
1 9.76927 9.91989 4.2254
1 8.87241 9.65205 4.45384
1 8.72857 9.7797 3.50513
1 8.30748 9.25319 2.81898
1 7.71123 8.91814 2.16892
1 -9.60967 3.49952 7.53885
1 -10.0675 3.45105 6.68827
1 10.1316 3.91654 6.07364
1 -10.1297 4.23596 5.29901
1 -9.78811 4.49194 4.46806
1 -9.75001 3.54765 4.15603
1 -9.36616 2.94642 3.55066
1 -9.47464 2.25184 2.90035
1 -8.57898 2.67685 2.92453
1 -8.24058 3.35516 3.4241
1 2.0526 -4.72924 -8.91765
1 2.79781 -4.5642 -9.53246
1 2.69114 -3.61679 -9.33048
1 2.35411 -3.45001 -10.2617
1 3.26835 -3.25328 -10.0725
1 3.47644 -4.14806 -10.2841
1 4.30886 -3.66578 -10.2262
1 4.18076 -3.01501 9.78513
1 3.58936 -2.34066 9.46966
1 2.94407 -2.0339 8.7535
1 -8.44074 -5.11588 -3.76741
1 -9.26206 -4.63176 -3.79506
1 -9.41006 -3.79156 -4.18165
1 -9.59433 -3.57244 -5.08998
1 -9.33475 -4.50718 -5.0456
1 -10.0663 -4.36924 -5.63633
1 -10.2632 -4.88142 -4.86399
1 -10.1862 -4.42276 -4.00599
1 10.2676 -3.92896 -4.74597
1 10.2863 -3.25887 -4.06413
1 10.1986 2.23929 10.3542
1 9.6826 1.67152 9.81088
1 9.06022 0.959986 9.56299
1 9.36808 1.405 8.7842
1 9.97468 0.706802 9.05362
1 -10.0613 0.167056 8.78954
1 -10.1101 0.134899 9.75209
1 -10.0588 1.06305 9.97325
1 -9.29398 1.66315 9.81395
1 -9.4926 2.52992 10.1322
1 0.372128 2.90945 -0.746618
1 1.05237 3.46284 -1.03895
1 1.52708 2.88859 -0.514745
1 1.8159 3.79488 -0.39943
1 2.29615 4.5148 0.128612
1 1.54233 4.95472 -0.291969
1 1.35815 4.52963 -1.13529
1 2.12958 4.59268 -1.67257
1 1.58169 4.25269 -2.41115
1 0.870587 3.62914 -2.4363
1 -7.80813 9.22596 10.1444
1 -7.5963 10.0503 -10.1257
1 -7.52278 -9.72765 -10.1306
1 -8.13009 -9.02442 -9.98695
1 -7.35903 -8.56892 -9.63646
1 -7.89672 -7.78113 -9.66922
1 -8.26713 -7.37007 10.3158
1 -8.59568 -6.82378 -9.71395
1 -7.88019 -6.14028 -9.88076
1 -7.46813 -6.65607 -9.21105
1 5.62902 -10.2041 -8.72012
1 5.05362 -9.7068 -8.16491
1 5.21165 -8.87569 -7.73943
1 6.21624 -8.85717 -7.62512
1 6.55387 -9.40919 -6.89847
1 7.33063 -8.78988 -6.92051
1 7.33198 -8.91627 -7.91995
1 7.26006 -9.59392 -8.65044
1 6.67102 -9.99485 -7.95679
1 7.42974 -9.83981 -7.28419
1 -7.33302 0.210456 -0.669427
1 -7.11531 0.34047 0.273209
1 -7.21627 -0.281678 0.949822
1 -6.84564 -0.327893 1.82195
1 -6.5998 -0.590289 2.75916
1 -5.96484 0.14656 2.79139
1 -5.39899 0.142662 3.56394
1 -4.63128 0.48179 3.13903
1 -4.90977 1.13631 3.82794
1 -5.73189 1.53359 3.95635
1 -2.26838 8.85931 4.69511
1 -1.97045 7.96998 5.00109
1 -2.7662 7.53129 5.19628
1 -3.2072 7.28063 4.4226
1 -2.85627 6.43521 4.41335
1 -3.54792 6.44472 3.67933
1 -4.00213 6.17215 4.47885
1 -4.68741 5.59931 4.23277
1 -4.91217 4.70706 3.97449
1 -5.73538 4.63481 3.47162
1 -6.98456 -2.11244 0.246547
1 -7.46697 -1.31812 0.335651
1 -8.04806 -2.05589 0.243388
1 -8.56704 -2.20502 -0.518854
1 -7.98345 -1.50019 -0.629492
1 -7.26558 -2.02607 -0.962599
1 -6.37368 -1.75357 -1.01729
1 -6.42117 -2.57316 -0.577649
1 -5.89099 -2.79723 0.129556
1 -5.86452 -1.87262 -0.17136
1 -9.14787 2.60283 4.42504
1 -8.64266 2.84321 5.18902
1 -7.72893 2.72203 5.47591
1 -7.09519 2.87222 4.77664
1 -6.16093 3.1347 4.7985
1 -6.33515 4.06404 5.11676
1 -7.2493 4.05256 4.9669
1 -7.01663 4.18394 5.88061
1 -6.45384 4.47618 6.666
1 -5.51975 4.4562 6.41218
1 3.62699 8.7887 7.15451
1 4.40865 9.29907 6.8953
1 4.97938 9.75725 7.49813
1 5.55005 9.20523 8.01729
1 5.99312 9.98944 7.54124
1 6.33089 9.22799 7.10416
1 6.32733 8.58457 7.7742
1 5.99744 8.17748 7.03007
1 6.09723 7.64688 6.21139
1 6.82535 8.19189 6.02552
1 1.83398 -5.86672 7.37256
1 2.37717 -6.42101 7.89986
1 2.6517 -6.71973 8.77003
1 3.12109 -7.51536 8.9106
1 3.03567 -7.69614 8.01605
1 3.39102 -8.6002 7.92908
1 2.43314 -8.6125 8.0475
1 2.19374 -8.60157 8.92741
1 1.71321 -8.69806 9.71964
1 2.11851 -9.6112 9.69409
1 -1.70876 8.97286 -3.04682
1 -1.83221 8.0731 -3.29653
1 -1.87458 7.89659 -4.25734
1 -1.81329 8.79826 -4.09906
1 -1.23457 9.53531 -3.91338
1 -2.18588 9.7533 -4.02339
1 -3.01068 10.2749 -4.45257
1 -2.21123 10.1534 -5.04819
1 -1.40703 -10.295 -4.70238
1 -0.704828 -10.0778 -5.27508
1 0.478559 -4.80337 -7.0695
1 -0.0179395 -5.43588 -7.63626
1 -0.849293 -5.83941 -7.44685
1 -1.14697 -6.71082 -7.63162
1 -1.81078 -7.32347 -7.92595
1 -1.87909 -8.28922 -8.05123
1 -2.43271 -8.09613 -7.29618
1 -3.35108 -8.19007 -7.09894
1 -3.37069 -9.00703 -7.64865
1 -4.217 -8.57752 -7.77381
1 -3.51722 8.53809 1.69863
1 -3.88773 9.39345 1.49097
1 -4.6218 8.73988 1.36102
1 -4.20755 9.13175 0.537006
1 -3.55153 9.80487 0.301154
1 -3.85856 9.37626 -0.483524
1 -4.45074 8.64249 -0.645089
1 -3.53118 8.484 -0.938762
1 -3.36397 9.07427 -1.68714
1 -2.69861 9.71473 -1.46765
1 -8.32812 7.72252 -4.70794
1 -7.74798 7.65917 -3.95224
1 -8.15567 8.52943 -4.07066
1 -8.63401 8.25425 -3.2493
1 -9.30362 8.2864 -3.96333
1 -8.99697 7.29884 -3.8866
1 -9.76913 7.45835 -3.26234
1 -9.30701 7.86483 -2.52573
1 -9.52542 7.93909 -1.60178
1 -8.82108 7.59959 -1.10133
1 5.69773 5.53991 5.4163
1 5.57155 4.5786 5.74136
1 6.50468 4.6413 5.46597
1 6.4766 3.76745 5.04286
1 5.52243 3.48192 4.93373
1 5.43197 3.62474 4.03285
1 5.90475 3.84628 3.29728
1 6.13227 4.78544 3.09168
1 6.17739 4.91314 4.05795
1 7.07246 4.61275 4.36336
1 -0.635775 -8.92847 7.19693
1 -1.54309 -8.91486 7.66998
1 -1.00172 -9.58309 8.0165
1 -1.85303 -10.0258 7.85065
1 -2.55591 -9.87343 7.18823
1 -2.56893 9.94079 7.49312
1 -2.86599 -10.2272 8.19478
1 -2.68472 -10.0324 9.12204
1 -2.03094 -9.37777 8.85043
1 -1.36497 -9.13689 9.51988
1 -7.36293 -3.30118 -9.75343
1 -6.71818 -3.54071 -9.07122
1 -6.15212 -2.92188 -9.4999
1 -5.28794 -2.96822 -9.1173
1 -4.80837 -3.82978 -9.32797
1 -5.67743 -3.8986 -9.71142
1 -6.01319 -3.41242 10.2651
1 -6.50234 -3.21938 9.35883
1 -7.18723 -3.46637 9.97619
1 -6.78123 -4.25944 9.65683
1 6.41807 9.38945 1.78873
1 6.49584 9.19375 2.70274
1 6.18729 10.0884 2.4753
1 7.13716 9.97808 2.39567
1 6.82055 -10.1059 1.81487
1 7.58981 -9.81436 2.31808
1 6.70392 -9.69122 2.73764
1 5.88428 -9.17299 2.7212
1 5.1862 -8.76913 2.1657
1 4.88973 -8.62295 3.05646
1 9.43758 -6.62097 9.10222
1 9.09002 -7.04707 8.30616
1 9.3209 -8.01167 8.40496
1 8.48686 -8.21701 8.78249
1 8.46427 -8.72213 9.58727
1 7.58575 -8.36934 9.85353
1 7.27372 -8.3844 -9.98719
1 8.18995 -8.14559 -10.1691
1 7.89227 -7.58826 -9.37562
1 8.74017 -7.839 -9.04513
1 -5.3927 3.79428 4.27381
1 -5.24303 3.69801 3.32672
1 -4.75103 4.21471 2.68697
1 -4.49882 4.21154 1.77264
1 -4.26375 5.0687 2.14164
1 -3.46872 5.12111 1.61306
1 -3.33965 4.27477 1.97533
1 -2.66891 3.96277 1.31161
1 -2.57415 4.13456 0.380183
1 -3.14869 4.78302 0.745403
1 -5.73095 3.25142 0.00463104
1 -6.29014 3.28786 0.783601
1 -6.92607 3.34473 1.51137
1 -7.528 3.70852 2.18397
1 -8.4487 3.69991 2.03233
1 -8.3449 2.90703 1.57449
1 -9.21034 2.80271 2.05359
1 -9.3553 2.27306 1.25901
1 -10.1231 2.78414 0.94856
1 -10.2073 2.88655 1.86777
1 6.18371 -3.29025 3.28036
1 6.4972 -3.29978 2.38301
1 5.55559 -3.15988 2.45754
1 5.34599 -3.81287 1.71805
1 5.49198 -4.59387 1.1406
1 6.08469 -5.02722 1.67361
1 5.4745 -5.60564 2.17208
1 5.39549 -6.50979 1.86004
1 6.03117 -7.16951 1.71137
1 6.87476 -7.5069 1.97492
1 -1.73893 -4.36792 -1.73619
1 -2.53142 -4.04518 -1.22548
1 -2.70437 -4.77319 -1.84857
1 -3.24334 -5.1238 -1.06778
1 -3.593 -4.24028 -0.937504
1 -4.14842 -3.65372 -0.453441
1 -4.41226 -2.96018 -1.03599
1 -4.15166 -2.01012 -0.922055
1 -3.85062 -1.1242 -1.09727
1 -2.98201 -1.28839 -1.60418
1 -4.89859 7.32913 -7.97244
1 -4.36275 7.58726 -7.19076
1 -3.59312 7.90766 -7.80414
1 -2.67896 7.59897 -8.00745
1 -2.27769 8.29913 -7.43319
1 -2.10315 7.46531 -7.07349
1 -2.96642 7.68926 -6.74651
1 -2.6751 7.26176 -5.88031
1 -2.63377 7.83159 -5.10412
1 -3.51126 7.41241 -5.24981
1 3.18485 -3.82146 8.19343
1 2.65947 -4.14102 8.94825
1 2.40234 -4.76276 8.25065
1 2.24023 -4.82391 7.27959
1 2.768 -4.93426 6.51575
1 2.11752 -4.23192 6.36242
1 2.29788 -4.3364 5.46656
1 1.96289 -3.50003 5.24071
1 1.14572 -3.65631 5.7262
1 0.310006 -3.22188 5.64399
1 -5.21884 -8.04111 -7.40676
1 -4.76642 -7.63609 -8.19688
1 -3.82659 -7.74203 -8.49504
1 -3.09213 -8.31427 -8.2794
1 -3.11561 -8.44925 -9.24002
1 -2.20054 -8.33937 -9.08437
1 -2.52794 -9.20875 -8.75714
1 -2.23625 -9.59775 -9.5287
1 -2.04089 -10.0762 -8.74422
1 -1.27954 -9.44367 -8.87766
1 -3.99728 1.58992 -6.56416
1 -4.591 1.1796 -5.95152
1 -5.28186 1.98951 -5.84226
1 -5.80252 1.2348 -6.08387
1 -6.49516 1.52708 -5.493
1 -7.28999 2.03275 -5.95998
1 -7.4192 1.25453 -6.44444
1 -6.62709 1.64756 -6.72836
1 -6.87203 2.17904 -7.45218
1 -7.79548 1.97705 -7.18434
1 0.0288953 -7.36262 -3.16931
1 -0.745455 -6.78291 -3.14841
1 -1.59995 -7.24155 -2.93577
1 -1.90378 -6.64457 -3.56921
1 -1.59545 -5.97149 -2.95587
1 -1.36449 -6.49241 -2.18669
1 -0.978523 -6.55148 -1.31302
1 -1.02473 -6.96791 -0.395318
1 -1.60683 -6.23708 -0.292139
1 -0.786134 -5.83502 -0.371126
1 7.72814 -8.06073 2.2353
1 7.64985 -7.30826 2.80616
1 7.17347 -7.39596 3.61638
1 7.09786 -8.16878 3.05526
1 6.91258 -8.74169 2.28208
1 6.12193 -8.23024 2.02477
1 6.07956 -7.52743 2.67482
1 5.59123 -7.95733 3.43077
1 5.89865 -8.81023 3.65536
1 6.83489 -9.01084 3.51507
1 -5.334 7.05866 -4.69819
1 -4.89562 7.75975 -4.16755
1 -4.04179 7.34569 -4.26449
1 -3.53582 6.58775 -4.5723
1 -4.20496 6.24667 -4.00447
1 -4.73318 6.4707 -3.29157
1 -5.35897 5.95479 -2.79193
1 -6.08718 5.51418 -2.40493
1 -6.45176 6.34964 -2.50655
1 -6.23785 6.36212 -1.55222
1 -7.9817 4.70561 0.421747
1 -8.75051 4.56348 0.990095
1 -8.26449 3.78091 0.91655
1 -7.34752 3.74494 0.635894
1 -6.63822 4.42988 0.723847
1 -7.41499 4.55887 1.30431
1 -8.14361 4.77357 1.83767
1 -8.35918 5.44833 1.17
1 -8.58056 5.94735 0.35284
1 -9.53018 6.27217 0.307226
1 10.2211 3.51604 -7.8205
1 -9.73162 3.9296 -7.52501
1 -10.2476 3.33068 -6.88045
1 9.57532 3.06087 -7.15921
1 9.52068 3.56454 -6.31173
1 8.64826 3.23908 -6.69263
1 9.14401 2.57168 -6.32923
1 9.06494 2.21889 -7.2569
1 8.27307 2.23544 -6.78641
1 7.38495 2.20267 -7.11373
1 6.65486 -3.98354 1.40503
1 7.50506 -4.33907 1.55115
1 7.40648 -5.29394 1.41833
1 8.29439 -5.53025 1.1725
1 8.27836 -5.05553 2.02469
1 8.6081 -4.16438 1.81445
1 9.45418 -4.5301 2.04319
1 9.08699 -5.27518 2.52624
1 9.5377 -5.04111 3.31913
1 10.2992 -4.81176 2.80497
1 2.82666 -1.59414 -7.43431
1 2.54448 -1.30096 -6.5314
1 1.79637 -1.99113 -6.39106
1 1.73154 -2.72229 -7.06581
1 1.7653 -3.02631 -6.18799
1 0.817334 -2.97701 -6.33115
1 0.874197 -2.14864 -6.79209
1 0.760707 -1.81771 -5.88477
1 0.129802 -2.05404 -5.21931
1 -0.447506 -2.61302 -5.8488
1 7.23835 0.396965 7.98515
1 8.10695 0.355778 7.62515
1 8.81359 0.316884 7.02178
1 9.61597 -0.276805 7.15554
1 10.3356 -0.859459 7.12333
1 9.65751 -1.50719 6.96742
1 9.8402 -1.14244 6.11992
1 10.3123 -1.88705 5.82097
1 -9.62186 -1.45573 5.61135
1 -9.38884 -1.06358 6.50383
1 9.82852 -8.90575 -1.40708
1 9.92441 -9.35854 -0.513112
1 9.59615 -8.65469 0.0356216
1 9.25208 -7.92306 0.530052
1 9.04199 -7.03789 0.76362
1 8.89767 -6.09308 0.578674
1 8.20852 -5.97549 -0.0653446
1 8.53398 -5.06819 0.0208361
1 9.2576 -5.62937 -0.287387
1 9.77655 -6.05192 -1.03027
1 -1.0113 6.94545 9.70708
1 -1.31377 7.69312 10.2126
1 -0.908775 8.51694 -10.1368
1 -1.53613 8.96109 9.9953
1 -0.785603 9.16473 9.48699
1 -0.850669 8.15259 9.28629
1 -0.673535 7.45866 8.63751
1 -0.878382 7.6589 7.70632
1 -1.65036 7.90835 8.24901
1 -1.84839 7.67908 9.16705
1 4.55896 1.31992 1.30563
1 5.55907 1.23065 1.30171
1 5.22802 0.840095 2.12315
1 4.98978 1.13784 2.98878
1 5.92456 1.41432 2.92428
1 6.01214 1.8685 3.76424
1 5.27018 2.29178 3.31337
1 6.04982 2.86495 2.93359
1 5.99961 2.23044 2.17997
1 6.30817 3.09975 1.86722
1 1.80253 -7.12917 4.94657
1 1.01329 -7.02125 5.48177
1 0.770782 -6.66323 4.61143
1 1.42398 -6.10466 4.89165
1 0.77086 -5.41678 4.87738
1 -0.112053 -5.14686 5.27751
1 0.0294729 -6.16537 5.34158
1 0.527971 -5.61498 6.01901
1 1.2924 -6.21648 5.95404
1 1.58003 -6.71888 6.76601
1 4.84348 3.21576 0.619476
1 5.56912 3.53583 1.13533
1 5.56946 4.35547 0.598911
1 4.83887 4.17544 0.00394894
1 4.49079 4.35959 0.844227
1 3.86069 3.8338 0.391548
1 3.38275 4.67109 0.413032
1 2.81375 4.60934 1.17286
1 3.65451 4.117 1.36611
1 4.28407 4.16961 2.16135
1 -3.36268 -6.46556 -8.40964
1 -2.57322 -6.3105 -8.96937
1 -1.67697 -6.65405 -8.80595
1 -1.13928 -7.41997 -8.76792
1 -0.820107 -8.23166 -8.3938
1 -1.04589 -8.8285 -7.70058
1 -0.473965 -9.37869 -7.2015
1 0.305322 -8.8752 -7.03698
1 0.0687764 -9.01867 -6.16856
1 -0.42918 -8.22986 -6.37485
1 -0.798757 -6.99138 4.57209
1 -1.4564 -6.52007 5.08328
1 -2.3729 -6.27596 5.26288
1 -2.75402 -7.17075 5.06735
1 -2.25912 -7.06972 5.93671
1 -2.53363 -6.22673 6.27253
1 -3.49596 -6.26378 6.44431
1 -4.11365 -6.65519 7.0632
1 -4.55756 -6.96519 7.83599
1 -3.6074 -6.92602 7.94072
1 3.36575 -8.11301 -0.250073
1 3.16186 -9.02113 -0.340122
1 2.31463 -8.69671 -0.741373
1 2.43667 -9.6816 -0.82946
1 2.00047 -9.35495 -1.60053
1 1.35702 -9.67157 -2.22232
1 1.56202 -10.2154 -1.47962
1 1.30144 10.2059 -0.631325
1 1.33506 -9.61089 -0.54194
1 0.724496 -9.95644 0.0789079
1 -1.80391 -1.00227 7.28881
1 -1.06089 -1.55382 7.6607
1 -0.510812 -1.60166 6.85998
1 -1.05211 -1.89814 6.07077
1 -1.31695 -1.05219 6.34772
1 -0.373598 -1.10022 6.01121
1 -0.151308 -1.05126 5.0397
1 0.365131 -0.354822 5.62338
1 -0.00988572 0.337932 5.03231
1 -0.686943 0.0777458 5.633
1 2.14558 -4.18553 -6.1746
1 1.46354 -4.78656 -6.46872
1 0.988238 -5.60047 -6.23299
1 0.303241 -6.15275 -6.56795
1 0.817853 -5.85334 -7.27571
1 1.76677 -5.49612 -7.35732
1 2.49542 -5.67208 -6.79825
1 2.53823 -4.7629 -7.07935
1 1.94333 -4.53001 -7.80807
1 2.28717 -3.85479 -8.41712
1 -8.75587 -2.31448 -1.59349
1 -9.50062 -2.86963 -1.13992
1 -10.2197 -2.79643 -1.83137
1 -10.2541 -3.6299 -1.33588
1 9.6121 -3.91108 -0.971732
1 8.97861 -4.05179 -1.67299
1 9.80994 -4.29518 -2.19014
1 9.78191 -4.90268 -2.92178
1 8.83113 -5.1452 -2.94142
1 8.52117 -4.21443 -2.75485
1 4.45468 -7.13649 -7.29676
1 5.35734 -6.72777 -7.48215
1 5.90772 -6.84206 -8.23142
1 5.49304 -7.6772 -7.83283
1 5.91075 -8.17903 -8.58046
1 5.48332 -7.90251 -9.38524
1 4.75907 -8.21454 -8.85761
1 4.31553 -8.82669 -8.27015
1 4.35873 -8.32323 -7.45897
1 3.56413 -8.86865 -7.57572
1 2.5659 2.44217 8.34198
1 2.1802 3.1722 7.8691
1 2.31731 4.05374 8.15175
1 2.4217 4.5398 7.31762
1 3.26285 4.06858 7.4383
1 3.07631 4.9095 7.96461
1 3.15952 4.35888 8.73426
1 3.9432 4.82987 9.066
1 4.77812 5.0084 9.50578
1 5.20112 4.95655 10.3033
1 8.09278 7.46528 5.95458
1 7.83658 8.42397 5.98008
1 7.79025 8.09063 5.05931
1 7.13298 7.38888 5.36751
1 6.19983 7.45465 5.0758
1 6.1219 7.14407 4.16035
1 5.73049 8.03198 4.02556
1 6.17853 8.86972 3.73691
1 6.68144 9.48883 4.21102
1 6.59081 10.0789 3.45535
1 -10.3364 8.65829 -7.31935
1 10.1264 8.09435 -8.07051
1 -10.2899 7.34748 -8.45162
1 -9.7546 6.58404 -8.73778
1 -9.15439 7.22108 -9.10745
1 -9.26297 7.97613 -9.68971
1 -8.46558 7.55311 -10.0199
1 -7.77921 7.79139 10.0803
1 -6.98618 7.62012 -10.0852
1 -7.05106 8.52437 -10.3606
1 2.39028 4.35727 3.64053
1 1.52782 4.59965 3.97416
1 1.53104 4.1297 3.1438
1 1.10685 3.28628 3.47545
1 1.06757 2.61848 2.84526
1 0.404576 3.13729 2.46567
1 0.704438 4.06607 2.31355
1 -0.217753 4.16732 2.34483
1 0.0830929 4.68234 1.59507
1 -0.793164 4.89337 1.92048
1 -10.2443 8.41299 1.35472
1 10.3606 8.47252 2.33253
1 -9.59452 8.41337 2.94339
1 -8.8571 7.84588 2.7603
1 -9.47751 7.10777 2.91248
1 -9.00344 7.03324 2.11434
1 -9.59953 7.7593 2.00236
1 -10.0374 6.98083 1.68822
1 -10.3286 6.24703 2.29115
1 9.95907 6.56934 3.09888
1 9.36267 -2.82059 9.57489
1 10 -3.46777 9.19825
1 -9.97611 -3.58476 8.67788
1 -9.37598 -3.39729 7.9919
1 -10.1172 -3.35471 7.35196
1 9.63943 -3.37993 7.3431
1 9.45453 -3.19991 8.26092
1 10.3459 -2.76997 8.12622
1 -9.80301 -2.05236 7.80072
1 -9.93225 -1.90507 6.84703
1 -8.92674 -7.18832 9.43458
1 -8.46991 -6.95746 8.57903
1 -8.72332 -6.35647 7.88856
1 -9.45806 -6.23454 8.49227
1 -9.44653 -6.33198 9.45079
1 -8.65495 -6.26486 10.0107
1 -7.9923 -6.69178 9.48919
1 -8.52699 -5.99869 9.07083
1 -9.11268 -5.24106 9.17028
1 -8.7841 -4.36699 9.14599
1 -6.14399 -2.0118 0.834912
1 -6.48785 -1.08862 0.880267
1 -6.48403 -0.871919 -0.0397456
1 -6.19092 -0.194043 0.51091
1 -5.41435 -0.461076 0.0544812
1 -5.02684 -1.20697 0.638703
1 -5.33967 -1.29742 1.54087
1 -4.4318 -1.1447 1.7065
1 -3.95283 -1.35605 0.912215
1 -3.9231 -1.92405 0.133829
1 7.64641 6.37932 -5.41194
1 6.9369 5.78504 -5.12068
1 6.05044 5.70613 -4.71846
1 5.40282 5.4183 -5.3647
1 4.59299 5.13462 -4.92301
1 3.95521 4.44428 -4.91961
1 3.52469 4.70488 -4.13138
1 2.60454 4.93924 -4.2404
1 2.74543 4.39136 -3.45474
1 2.74201 4.10896 -2.53536
1 0.497838 -7.86929 -7.09204
1 0.264425 -8.34564 -7.96935
1 -0.278878 -7.50603 -7.75295
1 -0.365167 -7.03023 -6.89893
1 0.525669 -6.87357 -7.22932
1 0.668042 -7.01607 -8.1508
1 0.76048 -6.18454 -8.49281
1 -0.106639 -6.35646 -8.10362
1 -0.161493 -6.56185 -9.04112
1 0.0317838 -7.5001 -8.99778
1 9.29886 -2.07717 -8.81063
1 9.3229 -1.52724 -8.05256
1 8.54062 -1.98597 -7.86469
1 8.43524 -1.04592 -7.77653
1 8.56676 -0.495994 -8.56244
1 8.51835 0.120589 -7.86352
1 9.43579 -0.00394415 -8.03663
1 9.76858 -0.440766 -8.78143
1 9.341 -1.04397 -9.3611
1 10.0686 -1.43932 -8.90834
1 8.0624 -0.673473 8.18058
1 8.89591 -0.307681 8.04432
1 8.78438 0.0911569 8.91138
1 8.37331 0.914714 8.71912
1 7.89322 1.31421 9.43237
1 7.80853 1.69354 10.3055
1 8.16575 2.44232 -9.96465
1 8.78929 1.75793 -10.3196
1 8.66904 0.819421 -10.1372
1 8.33282 0.0946165 10.0721
1 6.11695 -6.48338 -3.47664
1 5.97114 -5.54938 -3.55164
1 5.02308 -5.69491 -3.66276
1 5.30883 -4.77395 -3.6993
1 4.54529 -4.86855 -4.37042
1 3.67907 -4.88252 -4.87662
1 4.47628 -4.87933 -5.43946
1 4.75896 -4.21367 -6.02648
1 4.44914 -4.89409 -6.72695
1 4.52523 -5.68622 -7.29341
1 7.30421 -0.567258 10.2518
1 7.26444 0.374644 10.3355
1 6.4293 0.718931 -10.0993
1 6.60241 1.39855 -9.43741
1 6.03953 1.53798 -8.68928
1 5.44987 1.76818 -9.52156
1 4.44665 1.75054 -9.70523
1 3.84859 2.50574 -9.89129
1 3.93728 3.11321 -9.08381
1 4.82148 2.7574 -9.17741
1 -4.15978 -3.09274 -2.16484
1 -4.41549 -3.71593 -2.88878
1 -4.70929 -4.49123 -3.30552
1 -4.15018 -5.22686 -3.31776
1 -4.37995 -4.95843 -4.20259
1 -5.09378 -5.15069 -4.92578
1 -5.44871 -4.24284 -4.7403
1 -5.87015 -4.26597 -5.58034
1 -6.68114 -3.65807 -5.62025
1 -7.47037 -4.1791 -5.19176
1 6.006 -2.68655 -9.18982
1 5.94875 -3.6788 -8.95256
1 6.72386 -3.43364 -9.41711
1 6.36714 -3.03583 -10.1963
1 5.63194 -3.54867 -10.0878
1 5.1271 -4.34397 -10.1461
1 4.31104 -4.89155 -9.98461
1 3.96708 -4.21889 -9.3932
1 4.82932 -4.16152 -8.95317
1 4.7713 -3.28879 -9.23173
1 10.2238 1.26819 -1.72577
1 -10.28 0.541929 -2.38027
1 10.329 0.238684 -1.47037
1 -9.53242 0.587069 -1.46878
1 -9.40506 1.254 -2.11252
1 -9.62139 1.90503 -1.42895
1 -9.63743 2.32621 -0.622914
1 -9.38331 1.82391 0.244471
1 10.3626 1.8954 0.105192
1 10.1323 1.83178 -0.8531
1 8.91683 9.27957 9.23617
1 9.63298 9.85504 9.67581
1 9.03743 9.36872 10.2936
1 8.48212 8.9913 -9.71772
1 8.92842 8.25865 -10.1849
1 8.36859 8.6579 9.93407
1 7.49038 8.87777 9.70628
1 7.39277 8.54603 -10.1706
1 7.68013 8.24544 -9.3138
1 8.60484 8.16303 -9.02356
1 6.08449 1.83044 -5.31377
1 6.10051 2.00969 -4.40509
1 6.7971 1.35071 -4.383
1 6.32161 0.499006 -4.57257
1 6.06639 0.460619 -5.48229
1 5.68436 0.618938 -6.42816
1 4.80295 0.099402 -6.55427
1 5.53879 -0.412551 -6.931
1 5.04504 -0.143992 -7.73606
1 4.97733 0.738701 -7.35027
1 -8.13115 -3.17757 -3.06635
1 -7.32694 -3.02218 -3.62127
1 -6.44445 -2.93034 -3.79798
1 -5.77628 -3.20321 -4.46007
1 -6.70933 -3.54227 -4.58233
1 -6.14019 -3.99969 -3.9623
1 -6.23355 -4.81885 -3.38295
1 -5.46726 -5.02515 -3.92406
1 -6.22017 -5.37617 -4.49173
1 -6.5248 -4.51632 -4.73047
1 -7.4394 -9.52019 -9.03132
1 -6.51985 -9.40336 -9.3556
1 -6.97503 -10.2752 -9.45338
1 -6.18485 -10.2411 -10.0245
1 -6.73439 9.84024 10.188
1 -6.69872 9.38898 9.36561
1 -6.70288 8.37023 9.14225
1 -6.25059 7.9982 9.94559
1 -5.89536 8.94073 10.0399
1 -5.39423 8.99049 9.21218
1 -6.4872 6.28047 -9.17942
1 -5.89435 6.64768 -9.84505
1 -6.03177 7.53001 -9.49833
1 -5.82404 8.1063 -8.77283
1 -5.49017 8.6725 -9.4408
1 -6.25236 9.21545 -9.73555
1 -7.11183 9.43348 -9.34735
1 -7.59458 8.85291 -8.78229
1 -7.61068 8.23564 -9.53009
1 -6.71368 8.38356 -9.26066
1 -4.04495 1.38359 9.13165
1 -3.214 1.08137 8.68325
1 -2.64572 0.912813 9.36545
1 -2.30306 0.346735 8.65825
1 -1.6639 0.71132 9.23663
1 -1.32988 1.59934 9.49066
1 -1.90118 1.60498 10.2648
1 -1.22462 2.25546 10.3569
1 -1.03818 1.4086 -10.0027
1 -1.09182 0.544381 10.1641
1 6.0122 -4.67859 8.09557
1 6.30735 -4.43498 7.22529
1 5.73212 -3.70255 7.59745
1 5.20011 -2.96075 7.74924
1 4.42426 -2.42077 7.477
1 3.93272 -2.30639 6.69828
1 4.87481 -2.17271 6.5906
1 5.30703 -1.83182 7.38306
1 5.86491 -1.74696 6.60301
1 5.85105 -2.66423 6.81185
1 -0.434591 7.70235 -9.60344
1 -0.200445 7.89106 10.1476
1 0.0840485 7.46577 9.35474
1 0.813159 6.87568 9.64999
1 0.485986 6.53088 8.83167
1 0.495826 7.45207 8.46005
1 0.798317 8.23805 8.88789
1 1.51097 7.64921 8.94444
1 1.9583 8.323 9.42274
1 2.28212 9.12629 9.01466
1 5.02444 2.68929 -0.390753
1 5.05905 1.91669 -1.09739
1 4.77237 2.77164 -1.35603
1 4.17051 3.21922 -0.666156
1 4.28131 3.80348 -1.38312
1 3.79581 3.84656 -2.22143
1 3.71113 3.48113 -3.11408
1 4.55602 3.29328 -3.45361
1 5.4254 3.80934 -3.62498
1 6.28027 3.88235 -4.02698
1 -4.74827 2.78442 7.12335
1 -4.23369 2.92212 7.92054
1 -4.50787 2.04427 8.1911
1 -5.3797 1.78393 7.83569
1 -5.80014 2.20475 8.57124
1 -6.26148 1.76257 9.30254
1 -6.89865 1.78554 8.64937
1 -7.78679 1.32764 8.64076
1 -7.18765 0.897664 8.06492
1 -6.19051 1.10092 8.07654
1 -7.97558 5.78139 7.95069
1 -8.38184 5.10216 8.43361
1 -9.232 5.49034 7.98353
1 -9.43014 5.39641 7.01465
1 -8.49155 5.1995 7.28554
1 -8.16559 4.51403 6.67674
1 -8.16937 4.31137 5.73735
1 -9.10932 4.38413 5.66466
1 -9.05031 3.77591 4.90422
1 -8.14739 3.55509 4.58591
1 -7.6475 3.09167 8.11985
1 -7.06769 3.75136 8.46769
1 -6.59469 3.05239 8.06478
1 -6.88195 3.69155 7.34811
1 -6.87388 2.83369 6.90561
1 -7.76301 2.73713 7.15468
1 -7.82634 3.4621 6.54544
1 -8.81131 3.5105 6.52087
1 -9.29224 4.29803 6.99749
1 -9.08787 4.41118 7.92118
1 -4.91782 -4.37218 -8.4233
1 -4.11097 -4.0219 -8.04
1 -3.48844 -3.25209 -7.67891
1 -2.78854 -2.69754 -8.12079
1 -3.33734 -2.48223 -8.8485
1 -4.11459 -2.97175 -8.52794
1 -4.15852 -2.80293 -9.45108
1 -4.37095 -2.01868 -8.89461
1 -5.03045 -2.35439 -8.29067
1 -4.16611 -2.35458 -7.64557
1 -2.00761 -10.2025 -6.92984
1 -1.85621 10.143 -6.08242
1 -2.34755 9.3838 -5.77176
1 -1.541 9.01459 -5.98736
1 -1.85382 9.32861 -6.86337
1 -2.50225 9.34122 -7.62995
1 -1.84523 10.039 -7.85916
1 -1.38176 -9.88629 -7.77705
1 -1.05933 10.2279 -7.04106
1 -0.739291 9.91966 -6.18192
1 -4.82421 1.42443 0.0715351
1 -4.11921 2.06787 0.050845
1 -4.04637 2.96866 -0.241958
1 -3.29226 3.60942 -0.240073
1 -2.66878 2.96045 -0.50294
1 -2.66444 2.68424 0.424304
1 -2.08281 2.10219 0.995378
1 -2.98088 1.76554 1.17803
1 -3.06686 1.71525 0.226924
1 -3.29422 2.05678 -0.633404
1 0.767007 4.99002 -1.79437
1 0.0384119 4.95901 -2.36868
1 -0.622529 4.52517 -2.92963
1 -1.02804 4.72319 -2.11223
1 -1.64243 5.23454 -2.62531
1 -1.30642 5.96719 -3.15101
1 -0.586514 5.81953 -2.57342
1 -0.0199238 5.77434 -1.75731
1 -0.210955 5.08295 -1.1256
1 0.625043 5.29656 -0.730213
1 4.70603 -3.00742 -2.25355
1 5.14959 -2.59001 -1.52561
1 5.96278 -2.31228 -1.1001
1 6.37953 -3.15207 -1.33393
1 6.98982 -3.49953 -0.709214
1 7.09082 -4.24955 -1.27155
1 6.66849 -4.79604 -1.86994
1 5.86268 -4.2305 -1.98344
1 5.30115 -3.62096 -1.4906
1 5.71017 -3.22958 -2.26987
1 5.77525 4.99803 8.51064
1 5.90415 5.90042 8.81907
1 5.8413 5.36347 9.57195
1 6.63387 4.95327 9.91235
1 7.14398 5.10096 9.13808
1 7.6795 5.6567 9.61475
1 7.63138 5.70557 8.58437
1 7.09251 6.44978 8.74782
1 7.92404 6.68957 8.30128
1 8.01786 6.78821 9.34106
1 0.398934 6.18323 -4.62064
1 -0.388107 5.86831 -4.11714
1 -0.389491 6.58452 -3.45464
1 -0.214194 6.93161 -4.32418
1 -0.962218 7.44915 -4.13245
1 -0.917172 8.37514 -3.84697
1 -0.210802 7.81916 -3.52577
1 -0.092111 8.18554 -2.57956
1 -1.04791 8.11357 -2.50008
1 -0.917826 9.02189 -2.22747
1 6.10015 9.56381 0.690515
1 5.42663 9.03795 0.31123
1 6.05768 9.31018 -0.389235
1 6.21567 10.2462 -0.104684
1 6.15764 -9.59448 0.160392
1 6.88373 -8.93303 0.230418
1 7.4958 -8.74905 -0.471123
1 6.64224 -8.8445 -1.05729
1 5.8107 -8.5874 -0.696476
1 5.4397 -8.83594 0.149624
1 -8.04127 0.657038 -7.40185
1 -7.39875 1.11305 -8.03309
1 -7.06635 0.889876 -8.86237
1 -8.05885 1.01018 -9.20088
1 -7.96154 1.29148 -10.0572
1 -8.31683 1.12384 9.75708
1 -7.73575 0.359783 9.75898
1 -6.98349 0.864212 9.36675
1 -7.05756 0.960237 10.3177
1 -6.39159 1.72901 -10.2197
1 8.31401 -9.61519 -2.40668
1 9.1423 -9.64545 -2.87698