8000
Atoms. Timestep: 10000000
1 7.61413 0.743934 2.4966
1 8.34104 0.881384 1.86232
1 8.55187 0.354418 1.02398
1 9.02119 0.793635 0.328442
1 9.82477 0.732656 0.833439
1 9.43358 1.08493 1.65836
1 9.28818 1.96426 2.0685
1 8.88641 2.11498 2.94182
1 8.8485 3.10288 2.98166
1 8.45573 3.74205 2.41867
1 -3.98656 -2.44095 -7.25141
1 -4.62146 -2.67572 -6.53501
1 -5.18658 -1.85718 -6.87152
1 -5.40224 -0.928663 -6.80982
1 -4.81243 -0.914227 -7.659
1 -4.41844 -1.2006 -8.54704
1 -4.15689 -0.359307 -8.22
1 -3.26343 -0.72415 -8.13772
1 -3.29783 -1.64072 -7.67404
1 -3.63061 -2.00676 -8.46637
1 8.10766 2.34192 2.41206
1 7.49367 2.9649 2.82709
1 6.67749 3.46802 3.07423
1 5.81142 3.13235 3.31826
1 6.46665 2.43811 2.95022
1 5.75409 2.46874 2.3266
1 5.58698 3.29938 1.86951
1 5.05563 4.08339 1.84417
1 4.78338 4.58662 1.0316
1 3.93224 4.83304 0.52362
1 -8.42633 -10.0815 -1.81809
1 -8.78818 -9.48034 -1.22511
1 -8.56305 -8.859 -1.92661
1 -7.79684 -8.85231 -2.49896
1 -7.06184 -8.24063 -2.1851
1 -7.93675 -7.80941 -2.2794
1 -8.3627 -7.51229 -1.43176
1 -7.84978 -8.36592 -1.37448
1 -8.6307 -8.33591 -0.884464
1 -8.00679 -7.7807 -0.405058
1 1.06232 -5.28096 -3.78849
1 0.894018 -4.51444 -4.39359
1 0.332104 -5.27038 -4.53156
1 0.467636 -5.44095 -5.48309
1 0.732224 -6.08952 -6.17183
1 0.383236 -5.52308 -6.87527
1 0.900044 -5.01249 -6.22894
1 1.35263 -4.70684 -5.37966
1 1.8604 -4.60258 -4.63859
1 1.66216 -4.29311 -3.75943
1 -3.11665 -1.65317 2.51973
1 -3.70254 -2.23743 2.97697
1 -4.59887 -2.48405 2.63236
1 -4.28224 -1.66387 2.24782
1 -4.9668 -1.64373 2.94488
1 -5.03837 -1.92518 3.81937
1 -4.49902 -2.62372 3.53852
1 -4.45491 -3.47695 2.95643
1 -4.56648 -3.56174 2.00103
1 -3.61648 -3.40789 2.31239
1 1.70636 5.80862 -8.19339
1 1.23791 5.03917 -8.59427
1 0.770435 5.93823 -8.63541
1 0.919494 6.42039 -7.85832
1 1.14262 5.6679 -7.21299
1 1.19947 5.458 -6.25128
1 0.788691 5.4904 -5.42745
1 0.374687 5.51293 -4.55591
1 1.06433 5.9547 -3.99217
1 1.16407 6.88952 -4.10276
1 5.74575 1.73696 3.417
1 4.97653 2.06924 3.90802
1 5.68455 2.60731 4.29323
1 4.79239 2.77918 4.53275
1 4.3125 3.07296 3.80128
1 3.865 2.39807 4.29471
1 4.05547 2.23447 3.33475
1 4.88831 2.63664 2.96676
1 4.27755 2.83346 2.30239
1 4.59524 2.06871 1.88178
1 -3.78348 7.06147 8.99759
1 -4.27379 6.62445 9.72603
1 -4.47638 6.01199 9.02729
1 -4.32952 6.13396 8.07029
1 -3.59204 5.78021 8.71594
1 -3.88214 4.86682 8.50586
1 -4.27871 4.34313 9.17905
1 -4.26454 5.17855 9.71535
1 -3.74558 4.50479 10.178
1 -2.95162 4.70818 -10.6348
1 2.5063 -9.01805 7.48442
1 2.83016 -9.59099 8.23885
1 2.09481 -9.06077 8.62545
1 2.52785 -9.70143 9.17596
1 2.04939 -10.4016 8.8019
1 1.36025 -9.76207 8.99196
1 1.17427 -9.20256 9.74861
1 0.335624 -9.22785 9.3473
1 0.0486238 -8.34455 9.00554
1 1.00926 -8.37793 8.86908
1 9.46798 1.58175 -2.87599
1 9.25643 2.50622 -3.01523
1 8.89488 3.43917 -2.97056
1 9.7762 3.57737 -2.7893
1 10.1861 3.95492 -3.57387
1 9.33736 4.25748 -3.89139
1 8.98006 4.48796 -4.81963
1 8.61823 4.94944 -5.52553
1 8.72171 5.77936 -4.99342
1 9.45529 5.40217 -4.47214
1 9.9602 7.52804 -0.576165
1 10.5266 8.24401 -0.945209
1 -10.4056 8.21296 -0.061878
1 -10.0971 8.70835 0.695163
1 10.57 8.43446 1.34624
1 9.67543 8.63979 1.33025
1 10.1293 9.47676 1.69828
1 10.4735 10.3393 2.12729
1 10.4462 -10.0265 1.94329
1 10.1303 -9.44754 2.6473
1 6.773 0.553599 1.93122
1 6.15661 1.16478 2.28058
1 6.64583 1.69504 1.60689
1 7.48548 1.38317 1.30795
1 7.32478 0.461966 1.03868
1 6.65304 1.02714 0.649279
1 6.56527 1.80707 0.178412
1 6.40537 1.10939 -0.484542
1 6.85191 0.73869 -1.19873
1 6.91919 1.5651 -1.59692
1 -5.0497 4.26667 -4.40527
1 -5.07157 3.92216 -3.53795
1 -5.66681 3.1121 -3.34898
1 -5.93587 2.89429 -2.45528
1 -6.77497 3.27441 -2.22319
1 -7.60058 3.55534 -1.84337
1 -7.92693 4.44388 -2.16107
1 -8.64231 5.15122 -2.11879
1 -9.47546 5.74765 -2.07375
1 -8.59736 6.1661 -2.2099
1 -3.53371 -5.62221 -1.94418
1 -2.67595 -5.6132 -1.51252
1 -3.16355 -6.05071 -0.760059
1 -2.20442 -5.98323 -0.586284
1 -1.75327 -6.8522 -0.932146
1 -1.4066 -6.46602 -0.0699149
1 -1.80093 -7.23153 0.416115
1 -2.13373 -7.67822 -0.41623
1 -3.13538 -7.37629 -0.331089
1 -2.86799 -6.90206 -1.15158
1 -8.19792 3.23782 -0.461389
1 -9.16718 3.51339 -0.549192
1 -8.9384 4.41676 -0.259049
1 -7.99955 4.5988 -0.325279
1 -8.00566 4.64585 0.591083
1 -7.40346 3.88072 0.709924
1 -6.85867 4.41152 0.0784341
1 -7.24654 5.23485 -0.141951
1 -8.14269 5.52314 0.0713473
1 -8.95543 5.30783 0.522291
1 9.40171 9.46041 5.392
1 8.52474 9.99 5.6535
1 8.483 10.1134 6.60836
1 9.4032 9.83425 6.73044
1 9.41399 -10.5411 6.80616
1 9.90312 10.644 5.98762
1 10.2093 -10.2576 5.15781
1 9.29354 -10.1012 5.00018
1 8.81372 -10.5374 4.24708
1 9.16256 10.2392 4.86496
1 5.51306 -5.24741 8.4179
1 5.61392 -5.29777 9.33609
1 4.75683 -5.48662 9.65681
1 3.89746 -5.82436 9.63745
1 4.55422 -6.51393 9.80725
1 5.1955 -6.13266 10.3381
1 4.74775 -5.33922 -10.5948
1 5.16444 -5.74173 -9.85525
1 6.04017 -5.95849 -10.2317
1 6.10498 -5.31838 10.2162
1 -7.30035 6.05949 -7.17737
1 -7.5489 6.60805 -6.42936
1 -6.79579 6.22192 -5.90832
1 -6.31849 6.26518 -5.08487
1 -6.38028 5.8975 -4.18909
1 -7.0231 5.21153 -4.21746
1 -7.28439 4.60222 -4.95922
1 -6.61381 5.2907 -5.19085
1 -7.47922 5.41163 -5.51303
1 -7.95251 4.82549 -6.13524
1 8.21178 -2.14756 7.45362
1 7.81579 -2.51292 8.27442
1 8.47087 -2.89579 8.78861
1 9.41421 -3.13918 8.7602
1 10.1058 -2.74476 9.23075
1 10.0879 -2.36495 8.32503
1 10.6089 -3.16177 8.42061
1 -10.2987 -3.86664 7.96183
1 10.5513 -3.83014 7.09349
1 9.98372 -4.40325 6.48679
1 -0.184159 8.29415 -4.27302
1 0.402861 8.66134 -4.9708
1 -0.199666 8.30272 -5.57291
1 0.304372 8.74586 -6.25267
1 0.116887 9.52905 -5.70592
1 0.0539695 10.3591 -6.25554
1 0.735366 -10.2611 -6.3157
1 1.43891 -9.86003 -6.81851
1 1.15612 -10.4181 -7.59766
1 0.635116 -10.3033 -8.37767
1 4.9243 10.3624 -7.30689
1 4.82245 -10.1525 -6.77676
1 5.33637 -9.45322 -7.07057
1 6.12469 -8.8388 -6.97738
1 6.8326 -8.47561 -7.44892
1 7.57315 -8.81768 -7.93138
1 8.21318 -8.15602 -7.66001
1 8.70987 -8.03317 -6.82643
1 9.19987 -7.92167 -7.68328
1 9.01234 -7.09916 -7.24901
1 5.39798 6.02495 -7.74317
1 4.59104 6.33117 -8.03211
1 5.00323 7.07726 -8.57157
1 4.59848 7.0631 -9.4507
1 3.91521 7.2568 -8.76129
1 3.17714 7.71022 -8.38479
1 2.36478 7.49425 -8.80369
1 2.40547 7.07486 -7.97192
1 3.1381 6.78799 -7.37547
1 3.96916 7.11207 -7.09184
1 10.5135 -1.68575 3.2195
1 9.93693 -2.05581 3.88191
1 9.04459 -2.46167 3.8155
1 8.80854 -1.55011 3.69947
1 8.70817 -1.62164 4.6459
1 9.64611 -1.43214 4.94042
1 10.4829 -0.959132 4.58455
1 9.9048 -0.799787 3.80494
1 10.4715 -0.608319 3.13144
1 10.6195 0.294232 3.35814
1 -0.829261 -9.9841 3.13873
1 -0.924791 -10.4239 2.3084
1 -0.699327 10.1138 1.69743
1 -1.17838 9.81738 2.45274
1 -0.428454 9.21112 2.27019
1 -0.202797 8.93746 3.18406
1 -0.156942 8.03768 3.50933
1 -0.390515 7.62615 4.37539
1 -1.21056 7.38731 3.98537
1 -2.07629 7.7053 4.11608
1 2.53916 -2.33565 -5.58383
1 3.20437 -2.85584 -5.06768
1 2.36152 -3.03934 -4.65665
1 2.52335 -3.84701 -5.02781
1 3.13277 -4.2319 -5.6744
1 2.31106 -4.73253 -5.72479
1 2.33735 -5.66658 -6.0412
1 2.37928 -5.70679 -5.048
1 2.17405 -5.50745 -4.14848
1 1.61953 -6.11266 -3.64595
1 -8.03371 9.85118 9.70326
1 -7.94556 10.6323 10.2564
1 -7.46495 10.1771 -10.3774
1 -8.27138 9.63541 -10.5359
1 -8.85435 10.3677 10.5115
1 -9.5999 10.2371 -10.2904
1 -10.4725 9.91736 -10.0104
1 -10.3362 9.04618 -10.4147
1 10.6287 8.92964 10.0401
1 10.393 8.06053 10.3191
1 5.35496 -5.81963 -7.04687
1 5.12535 -6.02056 -6.12082
1 4.69117 -6.45621 -5.43429
1 5.39893 -6.17234 -4.89943
1 4.63165 -5.93858 -4.44898
1 4.50201 -5.55934 -3.58139
1 4.80784 -4.65553 -3.65793
1 5.75399 -4.61682 -3.74746
1 6.1646 -3.84713 -4.05994
1 6.00258 -3.14734 -3.46175
1 9.18598 8.29588 -7.73524
1 8.44209 7.71803 -7.8845
1 8.15256 8.21345 -8.59475
1 7.89351 8.66948 -7.78424
1 6.97604 8.51792 -7.72603
1 7.33092 7.66315 -7.87962
1 7.25426 7.14335 -8.64804
1 6.49971 6.84041 -9.22092
1 6.23747 6.35088 -8.40546
1 6.33776 7.24607 -8.00557
1 -3.95697 7.92026 -7.66276
1 -3.12079 7.6814 -7.34456
1 -3.27399 6.7539 -7.23563
1 -3.91825 6.14409 -7.55403
1 -4.41333 6.89884 -7.25916
1 -4.15111 6.89746 -6.35199
1 -3.88755 5.9763 -6.01835
1 -3.98009 5.48344 -6.85357
1 -4.9316 5.36536 -7.08086
1 -5.36228 4.62637 -6.70169
1 0.50782 5.96019 -2.0801
1 0.415419 6.18847 -3.0996
1 -0.0452268 5.45029 -2.77485
1 0.519606 4.79851 -3.21859
1 0.351631 3.99471 -3.68267
1 0.369003 4.43277 -4.47522
1 0.183237 3.69614 -5.00337
1 0.118477 4.5934 -5.4936
1 -0.512699 4.46841 -6.20172
1 -0.858977 4.84167 -5.42344
1 -9.30512 8.56595 1.48705
1 -9.84623 8.70934 2.31651
1 -10.1587 9.3754 1.64364
1 -9.22862 9.60129 1.59549
1 -9.09706 9.30185 0.666106
1 -9.00307 8.38988 0.194757
1 -8.35939 8.39143 0.968949
1 -7.83588 7.8731 0.385515
1 -7.39743 7.53073 -0.424588
1 -7.18588 6.96561 0.235844
1 0.390737 -1.08826 4.92321
1 1.29243 -1.11486 4.66701
1 2.13058 -0.587185 4.99227
1 2.79306 -0.0870088 5.58268
1 3.58244 -0.129398 5.03358
1 3.12227 -1.00295 4.84699
1 3.25992 -1.80101 5.32555
1 2.89024 -2.23389 4.59139
1 2.27304 -2.22871 3.79965
1 2.61207 -1.37034 4.02053
1 -8.60349 -3.83943 0.390538
1 -7.84763 -4.20986 -0.0265343
1 -7.16361 -4.56323 0.602346
1 -6.85433 -5.51678 0.369762
1 -6.47837 -6.41037 0.378249
1 -6.62161 -6.13005 -0.512737
1 -7.1298 -7.012 -0.304707
1 -7.01073 -7.47202 -1.12817
1 -6.07279 -7.28755 -0.967257
1 -5.67858 -6.50811 -0.7302
1 -9.74388 1.20078 0.330152
1 -9.57736 0.261694 0.446344
1 -9.55004 -0.661987 0.646382
1 -8.90358 -1.16119 0.22222
1 -8.07815 -0.914363 0.685521
1 -8.58786 -0.143488 0.435054
1 -8.81754 0.646267 -0.0163771
1 -8.30624 0.751187 0.844618
1 -8.0293 1.09466 1.68022
1 -7.91319 1.85494 1.04447
1 -7.60381 1.77563 5.69293
1 -6.68018 1.48034 5.78155
1 -6.38708 0.551543 5.85966
1 -5.53901 0.247971 6.05716
1 -5.62593 -0.671406 6.40245
1 -5.6066 0.0714593 7.0171
1 -6.36884 0.291797 7.68168
1 -7.02459 1.01353 7.68871
1 -6.90698 1.12783 8.61071
1 -6.27794 1.6617 8.21901
1 5.83713 2.67087 9.55416
1 4.92147 2.43634 9.63031
1 4.1673 1.77356 9.60948
1 4.15625 2.25867 10.468
1 4.90977 1.92549 -10.3412
1 5.1888 1.05774 -10.5524
1 5.54995 1.13069 -9.63595
1 6.45746 0.961797 -9.96197
1 6.80856 0.0190691 -9.97493
1 7.55776 0.659065 -10.098
1 2.9334 -4.56503 9.14677
1 3.78072 -4.82082 9.51172
1 4.22417 -4.38091 8.78257
1 4.36373 -5.30288 8.38462
1 3.56063 -4.79059 8.18141
1 2.67603 -5.00543 7.96798
1 1.93026 -4.99587 8.55643
1 1.586 -5.12875 9.40477
1 0.878075 -4.50633 9.33481
1 0.138442 -4.03891 8.91401
1 0.673806 -4.40101 -1.2955
1 0.93091 -4.01885 -0.435563
1 0.890761 -3.31767 -1.11439
1 1.25158 -2.47898 -1.518
1 2.16265 -2.48547 -1.14876
1 1.97611 -3.20199 -0.53962
1 2.32487 -3.50152 -1.46107
1 3.00681 -3.0598 -0.891507
1 2.95245 -3.62862 -0.136696
1 3.41214 -2.86764 0.210518
1 9.57434 -2.46795 4.88078
1 10.015 -3.34543 5.0107
1 10.4463 -3.05736 4.11698
1 -9.86638 -3.09465 4.25725
1 -10.0418 -2.29547 3.72825
1 -10.4598 -2.16587 4.56533
1 -10.1879 -2.76094 5.24377
1 -10.3758 -1.86608 5.68254
1 -10.0089 -2.52474 6.25027
1 -9.93695 -3.24186 6.87364
1 8.59149 -3.07991 -6.0498
1 8.32597 -3.80894 -6.65942
1 9.05392 -3.32533 -6.92762
1 9.91659 -3.05011 -6.68194
1 10.4647 -3.47468 -6.05421
1 10.2792 -2.76513 -5.51053
1 -10.6201 -2.24938 -4.77503
1 -10.3355 -3.12749 -4.55738
1 -9.67102 -2.57376 -5.05696
1 -9.76158 -2.09754 -5.93334
1 10.342 6.46864 3.84924
1 -10.0952 6.44002 4.13512
1 -9.87978 6.43973 5.03462
1 10.5819 6.83434 4.8461
1 9.90408 6.24929 4.92171
1 10.4857 6.07546 5.61296
1 10.3188 5.21093 4.99506
1 9.53909 5.28026 5.57663
1 9.51689 5.30607 6.52876
1 9.22057 5.34473 7.44279
1 -5.56534 -1.43719 -3.82514
1 -5.00054 -1.65296 -3.08509
1 -5.04369 -0.676321 -3.28052
1 -4.56755 -0.699578 -2.45003
1 -5.53906 -0.511079 -2.47401
1 -5.61171 -0.830589 -1.50197
1 -6.00267 -1.66067 -1.73152
1 -6.39796 -1.46699 -2.61089
1 -6.62966 -0.749189 -3.28522
1 -7.07334 -0.618444 -2.43576
1 -10.3772 0.671372 -10.0604
1 -9.71633 0.205846 -9.47622
1 -9.34673 0.551633 -10.2939
1 -9.65082 -0.322673 -10.3302
1 -9.70055 0.0763425 10.0535
1 -10.5518 -0.406058 10.2463
1 10.4749 -0.396144 -10.1523
1 -10.629 -0.55147 -9.2063
1 -10.1459 0.11147 -8.58109
1 10.3069 -0.147655 -8.18918
1 -5.05506 -7.7806 1.82847
1 -4.13325 -7.94697 2.11513
1 -3.91748 -7.20867 2.60253
1 -4.91808 -7.04352 2.63284
1 -5.19902 -6.48257 1.89747
1 -6.05311 -6.86692 1.76216
1 -6.1099 -6.68638 2.70836
1 -5.49259 -6.05488 3.05756
1 -5.27524 -6.70998 3.741
1 -5.08112 -6.24626 4.5702
1 0.429659 -7.29687 4.28887
1 0.482125 -7.10592 5.21852
1 1.36724 -7.28935 5.18639
1 1.59769 -6.41451 5.54438
1 1.03524 -6.54431 6.31695
1 1.54233 -7.42448 6.19668
1 1.23084 -7.27663 7.16138
1 0.660579 -8.07974 7.04279
1 0.391142 -7.4495 6.2167
1 -0.0991022 -6.73698 5.95459
1 0.965539 2.10745 5.4949
1 0.234037 2.83296 5.47072
1 -0.679808 2.74178 4.99029
1 -0.768799 3.54541 4.50864
1 -0.475981 4.31286 5.00086
1 0.0288056 5.03023 4.42941
1 0.401602 4.15549 4.38827
1 1.06306 4.63422 3.87867
1 0.399603 4.23379 3.32612
1 -0.465987 4.39686 3.76046
1 7.83169 8.6738 7.42455
1 8.68825 9.18579 7.29576
1 9.04418 8.33393 7.18377
1 9.0692 7.85396 8.00622
1 8.47027 8.59729 8.13809
1 8.51995 9.52023 8.54213
1 9.07829 9.95745 7.88968
1 9.21872 -10.5891 8.40264
1 9.68876 -10.5955 9.36532
1 9.4565 10.6294 10.2644
1 -5.80486 6.69126 -0.101494
1 -5.25112 7.27222 0.375544
1 -5.34794 7.43964 -0.569577
1 -4.91949 8.3659 -0.51242
1 -4.04022 8.33815 -0.974596
1 -3.71781 7.50395 -1.42185
1 -4.03335 6.86858 -0.784163
1 -4.05771 6.17671 -1.38519
1 -4.80528 6.82711 -1.54195
1 -4.81379 7.81223 -1.3051
1 -1.38832 -0.385555 -2.28705
1 -0.999241 -1.21541 -2.06998
1 -1.96614 -1.29219 -1.96245
1 -2.78708 -0.692597 -2.22188
1 -3.5169 -0.111692 -2.12514
1 -4.17283 0.585819 -1.99543
1 -5.10353 0.28982 -1.97646
1 -5.38078 0.655162 -2.80703
1 -6.21368 0.41704 -2.41027
1 -6.22137 0.337136 -1.39967
1 -4.43501 -5.83333 7.59982
1 -4.47008 -5.27836 8.36228
1 -3.58384 -5.38871 8.07739
1 -2.87876 -5.25678 8.70032
1 -2.58878 -6.12602 8.38245
1 -2.16169 -5.74551 7.67797
1 -1.52152 -5.44526 8.37822
1 -1.61489 -6.26856 8.77644
1 -0.788074 -6.09219 9.34492
1 -0.64305 -6.13843 8.42981
1 8.04514 -4.25667 -8.18456
1 7.45072 -4.29966 -7.41901
1 7.96521 -5.03947 -7.28207
1 8.82547 -4.70133 -7.26373
1 8.85796 -5.49258 -7.84969
1 9.01439 -6.08624 -8.62484
1 9.92849 -5.67438 -8.88815
1 9.57128 -4.92855 -9.22376
1 8.89352 -4.3287 -9.49207
1 8.82253 -4.95425 -10.223
1 1.04213 -4.03644 1.01575
1 1.81715 -3.91214 0.484498
1 1.16316 -3.26115 0.267858
1 0.569979 -2.62683 -0.199374
1 0.0661978 -3.09674 0.430487
1 0.174074 -4.01414 0.51001
1 0.478026 -4.90375 0.517461
1 -0.215757 -4.81335 1.14343
1 -0.52091 -5.6345 1.56654
1 -1.402 -5.47772 1.42129
1 -3.96292 -4.46805 -6.18848
1 -3.89338 -3.5309 -5.94093
1 -3.08802 -3.20675 -6.30557
1 -2.7053 -4.06899 -6.08472
1 -2.92609 -4.29117 -5.15852
1 -2.02929 -4.47775 -5.35742
1 -2.08864 -4.39767 -4.42088
1 -1.18885 -4.25004 -4.49999
1 -0.278524 -4.27162 -4.29975
1 -0.634119 -3.70988 -3.61137
1 -0.928973 5.2708 4.01511
1 -1.30682 5.28457 4.92139
1 -1.05756 5.08642 5.84172
1 -1.14315 6.07435 5.60442
1 -2.00642 6.01092 5.99834
1 -2.95089 5.98111 6.022
1 -3.71832 5.46896 6.2341
1 -3.77518 5.21659 5.28656
1 -3.80056 5.96392 4.65066
1 -3.39289 6.52986 3.98718
1 8.73011 -8.70747 8.66787
1 8.286 -8.22843 9.3446
1 9.1171 -7.76201 9.13502
1 9.33919 -8.16926 9.99865
1 10.197 -8.61243 10.0715
1 9.91337 -7.91434 -10.4831
1 9.81749 -7.19607 -9.8162
1 9.71609 -6.61024 -9.07879
1 9.32493 -7.03467 -8.31562
1 8.86817 -7.16103 -9.1139
1 9.20446 6.22848 -3.81629
1 10.0608 6.36222 -3.30216
1 10.1099 5.37548 -3.63707
1 10.4415 5.36869 -2.79021
1 -10.0486 4.97484 -2.33871
1 -10.6064 5.53639 -1.73024
1 -10.4051 4.5724 -1.44057
1 -9.71102 5.19906 -1.24538
1 -9.14759 4.42166 -1.41542
1 -9.28217 3.57221 -1.77258
1 3.14517 4.41519 1.0238
1 2.44694 4.81043 1.57406
1 2.64933 3.83631 1.63008
1 1.96176 3.23477 1.42136
1 2.55855 2.68016 0.90587
1 2.67292 2.74348 1.82757
1 2.27982 3.19204 2.57669
1 2.93888 2.54197 2.73501
1 3.12396 1.60505 2.86358
1 3.67101 0.827668 3.2442
1 3.27192 -8.52764 3.24706
1 3.47957 -7.60201 3.02818
1 4.12183 -8.08835 3.64316
1 3.52384 -7.67408 4.21881
1 2.71304 -7.87485 4.79146
1 2.692 -7.07889 5.29233
1 3.23963 -6.46003 5.82978
1 3.54209 -5.58377 5.92579
1 3.14815 -4.83151 5.55936
1 3.26641 -4.04514 6.06015
1 -6.38764 -8.39546 -6.41668
1 -5.48807 -8.41072 -6.1992
1 -4.63957 -8.70377 -5.96852
1 -4.56774 -8.03498 -6.63545
1 -4.25106 -7.3407 -7.23096
1 -3.42205 -7.63278 -6.77934
1 -3.76162 -7.84448 -5.93699
1 -3.48629 -8.67761 -6.23323
1 -2.64945 -8.35082 -6.36348
1 -2.34917 -9.01596 -6.9622
1 -9.3002 -6.98844 5.46225
1 -9.48987 -7.60251 4.71988
1 -9.48948 -8.01105 3.86374
1 -10.4111 -8.10159 4.05899
1 -10.3854 -7.36055 3.4052
1 -9.80042 -6.7978 3.87297
1 -10.2825 -6.69766 4.67344
1 -10.4823 -5.90252 5.18634
1 -10.1145 -5.00316 5.11775
1 -10.3182 -4.79558 6.00054
1 -1.9463 7.14162 9.08184
1 -2.32532 6.76338 8.33533
1 -3.03171 7.51875 8.50437
1 -2.94482 8.23083 7.82645
1 -2.45696 8.63457 7.12906
1 -3.18149 8.94859 6.63604
1 -4.07192 8.98603 6.35707
1 -3.89995 8.45312 7.09764
1 -3.91496 8.29859 8.04966
1 -3.35573 9.12745 8.0896
1 -7.03817 4.97772 4.68995
1 -7.29092 4.22091 5.26137
1 -6.33366 4.48733 5.41635
1 -5.82952 5.11761 5.89939
1 -5.44065 5.388 6.76992
1 -5.07429 5.74796 7.52449
1 -4.9262 5.17543 8.32176
1 -5.31475 4.71613 9.06894
1 -5.81399 5.45534 9.16806
1 -5.38356 5.52609 10.0396
1 2.5115 7.81078 3.84666
1 3.18008 7.26391 3.43372
1 3.99631 7.7518 3.17901
1 4.25207 7.16795 3.81513
1 3.89319 6.41486 4.29547
1 4.61185 5.80479 4.1713
1 3.76803 5.39023 4.17841
1 3.52613 4.5759 3.80725
1 2.66646 4.98943 3.66535
1 1.97288 5.5934 3.89936
1 0.0422835 3.26224 2.23066
1 -0.446979 3.63749 1.54219
1 -0.978332 4.29155 1.03797
1 -0.979504 3.79368 0.251677
1 -0.267418 4.47914 0.136507
1 0.51969 4.34293 -0.401917
1 0.189603 5.21227 -0.209723
1 -0.277834 4.99843 -0.997353
1 0.0503387 5.84255 -1.08577
1 0.65548 6.365 -0.645365
1 7.21077 0.433233 7.5947
1 7.14974 -0.427272 8.0144
1 6.92677 -1.23729 7.60895
1 7.70553 -0.929752 7.15376
1 7.0481 -0.310562 6.67453
1 6.54931 0.520829 6.83535
1 6.26709 0.17023 5.99938
1 6.51724 -0.781677 5.7122
1 6.52907 -1.24348 6.49537
1 6.02982 -0.594348 7.02003
1 9.2431 5.22892 -8.71572
1 9.68135 4.92794 -9.52746
1 9.87543 5.78688 -9.94542
1 8.96512 5.71587 -9.82142
1 8.25557 6.00612 -10.3553
1 9.05804 5.91951 10.3734
1 8.94122 5.0796 -10.622
1 8.06328 5.05769 10.2734
1 7.51959 5.32214 -10.2936
1 7.07462 4.83433 10.2887
1 3.10095 0.100721 9.94483
1 2.73521 -0.619013 10.4855
1 2.16194 -0.171967 -10.2228
1 2.46937 -0.991291 -9.72708
1 2.62517 -0.1695 -9.25061
1 2.30307 -0.223757 -8.38222
1 2.80377 -0.677019 -7.67015
1 2.58595 0.133192 -7.23828
1 1.59979 -0.000723134 -7.33194
1 1.53364 0.828233 -6.74468
1 7.72331 -2.29141 -9.95781
1 8.31869 -2.05499 -10.6455
1 8.46698 -2.22033 9.69554
1 7.53413 -2.37451 9.60529
1 7.48372 -1.44166 9.59433
1 7.49372 -1.4668 8.66515
1 7.67125 -0.575064 8.90617
1 6.76628 -0.475265 9.24342
1 6.47723 -0.0566716 10.0163
1 6.36148 -0.678226 -10.6171
1 -1.41613 7.94688 -8.57058
1 -1.36828 7.83338 -9.51544
1 -1.33264 7.84898 -10.4278
1 -0.434279 7.99957 10.5567
1 -0.159884 7.68757 -9.8653
1 0.571047 8.19418 -9.55304
1 1.4747 7.84442 -9.55713
1 1.24273 7.97093 -10.4616
1 0.62442 8.32766 10.2523
1 0.497876 7.41983 10.0555
1 -0.0185915 -2.23288 -4.1854
1 0.188788 -2.57573 -3.19899
1 0.498685 -3.44486 -3.19173
1 0.712675 -3.39374 -4.12199
1 1.32489 -2.62986 -4.10287
1 1.23177 -1.64828 -4.0593
1 0.665938 -1.88343 -4.76621
1 0.599113 -2.80722 -4.9639
1 0.0355257 -2.41986 -5.61771
1 -0.153376 -2.49911 -6.63684
1 -0.136879 5.30268 3.3064
1 0.736657 5.22117 2.92731
1 1.12277 5.97209 2.63655
1 0.163739 6.26268 2.58376
1 -0.602971 6.00309 2.00491
1 -1.22686 5.74357 2.63672
1 -1.63665 6.49928 2.16639
1 -1.80137 7.50219 2.12181
1 -2.04249 8.43111 2.36974
1 -1.78309 7.8088 3.05326
1 -4.07507 -1.1445 7.73874
1 -3.29293 -1.25144 8.36153
1 -3.63663 -2.10224 8.1283
1 -3.6543 -2.80243 7.3432
1 -4.56437 -2.52865 7.10154
1 -4.57348 -3.43721 6.82273
1 -4.01411 -3.63353 6.08397
1 -4.56824 -3.11919 5.53509
1 -4.19593 -2.40243 6.14475
1 -3.29969 -2.71055 6.25685
1 7.14627 -0.514719 -7.96814
1 6.3016 -0.786724 -7.57647
1 5.94518 0.0215544 -7.17099
1 6.14862 0.935171 -7.45229
1 5.62859 1.72932 -7.32057
1 5.71581 1.89705 -6.38526
1 5.24424 2.57329 -5.86099
1 4.30934 2.77579 -6.17717
1 4.66844 3.65015 -6.14056
1 4.65435 4.3122 -6.87194
1 9.05068 8.52568 3.22742
1 8.85846 7.78816 2.64951
1 8.18689 7.25193 2.19757
1 8.12111 6.44183 2.71898
1 7.21932 6.29299 2.35189
1 6.36627 6.43058 2.69677
1 6.68966 7.22937 3.22672
1 7.54042 7.08573 3.65024
1 8.41485 6.8042 3.69137
1 8.81961 7.54737 4.02976
1 -10.2849 -8.09202 -10.2802
1 -10.1444 -8.75638 -9.5402
1 -9.19402 -8.47753 -9.69804
1 -9.24524 -9.12456 -9.00706
1 -8.43635 -8.61052 -8.88212
1 -7.50418 -8.16255 -9.04458
1 -7.31339 -7.37566 -9.47522
1 -7.58937 -6.46792 -9.80717
1 -7.92114 -6.45807 10.4733
1 -7.06077 -6.89823 10.4497
1 -5.09226 -5.81762 -8.73124
1 -5.89333 -5.89117 -9.29243
1 -6.0778 -6.182 -8.36504
1 -6.30053 -6.94089 -7.75356
1 -6.6629 -7.13749 -8.65804
1 -7.50769 -7.20338 -8.05068
1 -7.40687 -6.46556 -7.49063
1 -8.01185 -7.24174 -7.0854
1 -7.42716 -7.66396 -6.46192
1 -7.93221 -7.25268 -5.78448
1 -2.66844 1.21676 -7.50676
1 -2.15482 0.4682 -7.3824
1 -1.46333 -0.0895065 -7.01475
1 -1.04857 0.789116 -7.42675
1 -0.484125 -0.0209415 -7.41659
1 -0.924386 -0.129719 -8.33632
1 -0.390813 0.13814 -9.13284
1 -0.675456 0.890369 -8.70033
1 -1.36517 0.63111 -9.35212
1 -1.91588 0.833178 -10.0825
1 9.74229 -2.29483 -9.88435
1 10.4089 -2.94689 -10.0284
1 9.68806 -3.50437 -9.76465
1 9.735 -4.44311 -10.0478
1 9.3876 -4.31839 10.3418
1 8.70865 -3.85603 -10.5439
1 8.68824 -2.89498 -10.2815
1 7.86398 -3.05126 10.4405
1 7.15657 -2.33236 10.5261
1 6.51826 -1.91602 10.0051
1 -8.84747 1.44669 8.65112
1 -8.07116 1.55744 8.06441
1 -8.14462 2.47118 8.39026
1 -8.86808 2.69519 9.0282
1 -8.22046 2.98683 9.72434
1 -7.40443 2.98706 9.21668
1 -7.04647 2.52311 8.35509
1 -7.23923 2.13365 7.46143
1 -7.21582 1.61904 6.68887
1 -7.16359 0.656331 6.67926
1 4.75804 5.9778 1.81186
1 5.61898 6.02604 2.11094
1 5.47551 5.03917 2.36344
1 5.78273 4.92835 1.47398
1 5.87431 4.05997 1.14168
1 6.72479 3.64356 1.12687
1 7.66692 3.51158 0.963695
1 8.6496 3.61023 1.05493
1 9.14467 3.09462 1.71723
1 9.86413 2.85876 2.27528
1 7.84884 8.53967 4.51286
1 7.97222 9.01216 3.70205
1 7.44587 9.09139 2.85581
1 8.03055 9.48093 2.19693
1 8.56232 8.73922 2.13995
1 8.00419 8.23164 1.61825
1 8.44686 8.84994 0.908907
1 8.93493 8.09591 0.730081
1 8.30956 7.48966 1.05101
1 8.98275 7.59775 1.65227
1 4.60593 6.382 10.1274
1 4.13001 6.00738 9.37265
1 3.74684 5.51591 8.66114
1 2.81537 5.53284 8.64141
1 3.13778 6.38465 9.12539
1 2.99863 7.38064 9.3832
1 2.21731 6.82236 9.18445
1 1.59531 6.83796 8.45096
1 1.37774 7.232 7.62357
1 1.80867 8.10315 7.32556
1 -2.34682 -3.25856 -5.42684
1 -1.58411 -3.42224 -4.91771
1 -0.870309 -2.85888 -4.9086
1 -1.3208 -2.54108 -5.68076
1 -1.88155 -2.50676 -6.4286
1 -2.12574 -3.12509 -7.19318
1 -2.90793 -2.62311 -7.26969
1 -2.76607 -1.93824 -6.66137
1 -2.85411 -1.04233 -6.38642
1 -2.508 -0.990838 -7.2503
1 -10.5863 1.17828 -4.58673
1 -10.05 1.06048 -3.79953
1 -10.1207 1.921 -4.11732
1 10.1658 1.87638 -4.14
1 10.3475 1.93283 -5.13335
1 -10.2577 2.55785 -5.32416
1 -10.5759 2.8451 -4.47696
1 10.0966 2.8609 -3.75701
1 9.45005 3.33581 -4.32501
1 9.68359 2.72374 -4.95831
1 -9.88936 -0.119421 8.07739
1 -9.56978 0.762234 8.26174
1 -10.4568 0.646362 8.52585
1 10.0461 1.0845 8.80062
1 9.35254 1.57013 9.29471
1 9.20108 1.5785 8.35509
1 9.15955 1.77095 7.45007
1 8.81382 2.54525 6.96281
1 8.83489 2.27316 5.98491
1 7.95329 2.13998 6.19127
1 -5.80573 9.86638 -2.83895
1 -5.62319 9.83201 -3.83638
1 -5.75328 8.89506 -3.72017
1 -5.40436 7.95824 -3.62092
1 -5.89423 7.78036 -2.84125
1 -4.9179 7.72646 -2.60369
1 -4.35162 8.42351 -2.13796
1 -5.29447 8.81583 -2.28895
1 -5.67243 9.44072 -1.64864
1 -4.94298 9.99693 -1.75466
1 4.25071 -9.3094 -9.20481
1 4.84984 -9.81393 -9.75393
1 3.97785 -10.094 -9.97635
1 3.69889 10.5756 10.5777
1 2.77562 10.3903 -10.382
1 2.03938 10.4297 10.281
1 1.76155 9.65852 -10.6207
1 0.912387 9.30999 -10.585
1 0.03957 8.95885 -10.2636
1 -0.834469 8.81632 -9.96896
1 0.482347 -0.0814341 2.72244
1 0.962188 -0.977375 2.57875
1 0.0416671 -1.17542 2.58927
1 -0.605781 -1.88382 2.72559
1 -0.435192 -2.77643 3.14252
1 0.0153504 -3.09928 3.87235
1 -0.679652 -2.65812 4.43741
1 -0.101593 -2.72688 5.20915
1 0.534682 -2.25723 4.709
1 1.46117 -2.37982 4.65892
1 3.17371 -5.82836 -8.66933
1 3.01441 -5.18188 -8.04703
1 2.94152 -4.49708 -8.75512
1 2.25739 -5.16822 -8.75062
1 2.0016 -5.06651 -9.67494
1 1.84031 -5.95877 -9.68903
1 2.52533 -6.64986 -9.78817
1 3.14506 -7.02669 -10.3151
1 3.8055 -7.72491 -10.3375
1 4.5248 -8.32433 -10.6522
1 -5.315 -3.27155 -0.610483
1 -4.57632 -2.84251 -0.163684
1 -4.11352 -3.67524 -0.266655
1 -3.90528 -3.79264 -1.18191
1 -3.11102 -3.17746 -1.17187
1 -2.30621 -3.59048 -1.66198
1 -2.99935 -3.98896 -2.27958
1 -3.70675 -4.60486 -1.8651
1 -4.28033 -4.61047 -2.64154
1 -4.51785 -3.75842 -2.2444
1 -9.90838 -0.476798 3.99912
1 -9.8322 -1.29375 3.56427
1 -9.66991 -1.48372 4.48891
1 -8.83286 -2.00532 4.60471
1 -8.61353 -1.25656 5.1898
1 -9.30337 -1.61524 5.77923
1 -8.99345 -2.40687 6.15312
1 -8.33498 -2.73393 5.5598
1 -7.72965 -2.55294 4.77695
1 -6.83042 -2.25135 4.80783
1 -9.24064 -6.92489 -5.55513
1 -9.87074 -6.22861 -5.38171
1 10.6148 -6.66499 -5.8244
1 -10.2463 -6.10556 -6.42321
1 -10.2119 -6.13246 -7.37641
1 -9.80246 -6.93477 -7.86123
1 -9.25504 -6.74354 -8.64014
1 -9.58983 -5.97945 -8.11567
1 -8.75522 -5.51511 -8.10082
1 -8.83805 -5.83166 -9.03612
1 -7.76944 -2.50625 1.89647
1 -8.39689 -2.11331 2.47931
1 -8.57561 -1.63177 3.36849
1 -8.70956 -2.54619 3.60525
1 -7.83867 -2.40264 3.2477
1 -7.05487 -2.14557 2.8192
1 -6.48923 -2.2151 2.03753
1 -5.56711 -2.48509 2.25101
1 -5.30299 -1.66797 1.93338
1 -4.77586 -2.29972 1.3857
1 -6.81189 -1.0423 -1.40198
1 -6.96211 -1.94387 -1.21653
1 -7.08089 -1.57357 -0.378651
1 -7.98284 -1.18805 -0.172527
1 -7.2165 -0.646744 0.239382
1 -7.37747 -0.341669 -0.618672
1 -7.87603 0.077599 -1.38066
1 -8.22209 -0.731687 -1.196
1 -8.82736 -0.273567 -0.569505
1 -9.376 -0.327842 -1.36601
1 -3.07241 3.92586 1.66847
1 -2.91202 2.95985 1.76362
1 -3.54565 2.23796 1.75062
1 -3.24994 2.39634 2.66109
1 -2.84885 1.51598 2.41155
1 -2.68178 1.02768 3.24754
1 -2.56468 1.86506 3.72516
1 -1.83609 1.39888 4.04351
1 -2.09733 0.485695 3.95898
1 -2.87382 -0.00610972 3.66142
1 -8.40924 -1.63277 7.15431
1 -8.42994 -0.813128 7.62969
1 -9.21423 -0.491053 7.30117
1 -9.44014 0.424852 7.08621
1 -8.79563 1.08087 7.28912
1 -8.19873 1.30389 6.61998
1 -9.08344 1.39929 6.23148
1 -9.41845 0.523935 6.11976
1 -9.27648 -0.464981 6.16866
1 -10.0428 -0.568606 5.59902
1 -2.568 5.68394 9.73249
1 -2.92639 6.52478 9.37721
1 -3.08482 7.2682 10.0122
1 -2.93539 6.53958 -10.6297
1 -3.51507 7.23752 -10.4152
1 -3.39482 6.8009 -9.50862
1 -3.41702 5.87062 -9.80933
1 -3.67036 6.00595 -8.84037
1 -3.08201 5.64353 -8.07521
1 -2.87055 5.78087 -7.14986
1 9.20722 8.5136 8.77768
1 8.98786 7.63523 9.08295
1 9.27693 6.81277 9.44628
1 10.0514 6.62613 10.0309
1 -10.3604 6.4024 9.77623
1 -9.57717 6.18818 9.28278
1 -9.7049 7.08996 9.07658
1 -8.88993 7.41265 8.59809
1 -8.71495 7.85702 7.7488
1 -8.47052 8.78212 7.48411
1 4.69604 10.0893 -9.56584
1 5.03029 -10.6228 -8.8557
1 4.71795 -9.86674 -8.31634
1 5.59832 -9.73669 -8.13251
1 5.85114 -9.88654 -9.0792
1 6.55218 -9.35153 -9.46333
1 7.10617 -9.55511 -8.68268
1 6.34927 -9.08968 -8.32534
1 6.38037 -8.19992 -8.70814
1 6.2652 -7.68594 -9.49497
1 -9.63102 -8.76972 1.56695
1 -9.5488 -8.70998 0.663639
1 -8.6701 -8.5672 0.15745
1 -8.26279 -8.49042 0.982394
1 -8.66676 -9.282 1.26414
1 -9.30596 -9.74392 0.721653
1 -9.97124 -9.75864 1.42875
1 -10.1047 -9.56911 2.35244
1 -9.38001 -8.95993 2.59052
1 -9.08661 -9.78614 2.266
1 -10.4075 1.87488 5.32824
1 -9.89596 2.60237 5.647
1 -9.66186 2.36853 4.69891
1 -10.305 1.8898 4.10842
1 -9.85395 1.19703 3.60419
1 -10.047 1.76905 2.86439
1 -10.283 2.59213 3.27008
1 -9.90278 3.38869 2.89501
1 -9.07971 3.31721 3.44615
1 -9.0755 2.53613 2.992
1 -5.58392 -8.87701 0.0480859
1 -5.4719 -9.52915 -0.58293
1 -5.52543 -9.25412 -1.49117
1 -4.90154 -9.25889 -2.24523
1 -4.16925 -8.83091 -2.6163
1 -3.89995 -7.9199 -2.46019
1 -4.80521 -7.74148 -2.81265
1 -5.17565 -8.03233 -3.68299
1 -5.2606 -8.80433 -4.28043
1 -5.8256 -9.11428 -3.60306
1 8.28869 6.05189 0.585264
1 7.82517 6.8595 0.37441
1 7.03602 6.84099 0.939138
1 7.90101 6.56246 1.4138
1 8.37049 5.8714 1.91613
1 9.14185 6.33694 2.30852
1 9.54763 5.53741 2.07264
1 10.2625 5.04951 1.69693
1 10.2517 4.38561 2.42718
1 9.44186 4.00364 2.14572
1 -5.67145 -7.03256 -3.4114
1 -4.78344 -6.71668 -3.23674
1 -3.84232 -6.72861 -3.00728
1 -3.94746 -5.77477 -3.22146
1 -3.48661 -5.11076 -3.84057
1 -3.62571 -4.86947 -4.77817
1 -4.02747 -5.48728 -5.42385
1 -3.21588 -5.20826 -5.82021
1 -2.93059 -5.9765 -5.40868
1 -3.34716 -5.95603 -4.55203
1 -0.793272 -6.52657 7.28264
1 0.0979623 -6.90518 7.44235
1 0.246145 -6.02641 7.75268
1 0.612978 -5.24716 7.38222
1 0.0154573 -5.73346 6.74009
1 -0.201715 -4.80726 6.48627
1 -0.153235 -3.81834 6.74077
1 0.625481 -4.05511 7.28403
1 0.210332 -4.53755 7.99499
1 -0.696119 -4.89665 8.11787
1 -3.28477 2.79037 -9.03501
1 -3.19076 2.89781 -8.10058
1 -3.46926 3.74436 -7.71162
1 -4.30516 3.32075 -7.65126
1 -4.16883 3.26058 -8.61272
1 -3.54538 3.92098 -8.7562
1 -3.77579 4.86181 -8.7014
1 -4.34084 4.19095 -8.2593
1 -4.90677 3.96314 -9.02122
1 -4.35429 4.30685 -9.69174
1 1.41978 -1.96854 -0.493207
1 1.50995 -1.24359 -1.07348
1 1.53626 -0.479741 -1.6635
1 2.06434 -0.260114 -2.4288
1 1.94996 -0.431153 -3.29304
1 2.82736 -0.904066 -3.58498
1 3.59348 -0.795738 -2.9082
1 3.83217 -1.1872 -3.70046
1 4.33859 -1.88771 -4.12293
1 4.97502 -1.37771 -3.63839
1 -7.26154 8.90809 -9.5998
1 -6.60139 8.28142 -9.86726
1 -5.74022 8.62649 -9.84986
1 -5.71431 7.91526 -9.26046
1 -6.47501 7.32142 -9.09336
1 -6.77483 6.45967 -9.47201
1 -7.02482 7.04991 -10.2123
1 -6.55001 7.04968 10.2692
1 -5.64366 6.98467 10.487