8000
Atoms. Timestep: 0
1 -1.68105 -6.69989 0.699801
1 -1.22509 -6.00219 0.203748
1 -1.63507 -5.25376 -0.142835
1 -2.32674 -5.79261 0.351565
1 -2.41334 -6.18052 1.19825
1 -3.01181 -5.48883 1.09564
1 -3.23331 -5.75826 2.01903
1 -2.50921 -5.99953 2.64941
1 -2.11663 -6.80883 3.03737
1 -2.5172 -6.99208 2.19285
1 -1.72134 7.48704 -5.08301
1 -2.52047 7.00986 -5.1856
1 -2.56792 7.95685 -5.53055
1 -2.7448 8.83258 -5.56571
1 -2.50942 8.37413 -6.39765
1 -3.00916 7.45873 -6.39652
1 -3.96674 7.447 -6.73601
1 -4.72429 8.0951 -6.69873
1 -4.95094 9.01501 -6.68777
1 -4.12854 9.48799 -6.44429
1 0.963583 -1.94484 4.32133
1 0.692847 -2.82299 4.27403
1 1.40908 -3.31347 3.9913
1 2.03074 -2.58706 4.28419
1 2.67539 -2.14109 4.82307
1 3.63454 -2.27562 4.62643
1 3.40028 -3.16116 4.60465
1 3.2546 -2.90553 5.52111
1 3.54402 -1.99197 5.81474
1 2.67455 -2.32784 6.11886
1 8.23182 2.72507 -2.76972
1 7.36527 2.61555 -2.25635
1 7.93007 1.83531 -2.3058
1 7.98353 2.14436 -1.41659
1 8.37536 1.49612 -0.731048
1 7.42926 1.68197 -0.609322
1 7.06787 2.54123 -0.245088
1 6.80208 2.73403 0.626188
1 5.92452 3.25289 0.504744
1 5.73455 2.45773 0.0132643
1 -2.59413 -6.63187 4.99219
1 -2.076 -5.71491 4.97287
1 -2.93381 -5.4477 4.70403
1 -3.76347 -5.72997 5.05577
1 -4.33769 -5.54559 5.83797
1 -4.44808 -6.46887 5.7426
1 -4.88383 -6.26593 6.52758
1 -5.61285 -6.25663 5.97003
1 -6.31574 -6.43713 6.57515
1 -7.07581 -6.57153 6.02074
1 2.55199 -0.330178 -10.0544
1 1.89911 0.233762 10.3163
1 1.4147 -0.153036 -9.95052
1 1.72223 -0.784735 10.4099
1 2.57839 -1.2455 10.3714
1 2.76794 -1.78335 -9.78086
1 3.07872 -2.64875 -9.43722
1 3.33051 -2.60613 -8.47269
1 4.12915 -2.78883 -7.8486
1 3.90464 -2.35241 -7.01303
1 -2.13676 2.40799 2.59497
1 -2.8569 3.00702 2.82983
1 -3.33688 3.43094 2.11533
1 -4.09398 3.04484 1.75269
1 -4.92007 3.50391 1.82829
1 -5.39325 3.50136 2.68315
1 -6.32057 3.65741 2.78922
1 -6.13911 4.11011 1.95622
1 -6.4773 3.24659 1.91603
1 -6.59918 2.51994 2.62554
1 0.95978 -2.92223 -10.0901
1 0.936475 -3.01113 9.93073
1 0.965508 -2.10943 9.66978
1 1.13712 -1.61592 10.4232
1 0.659405 -0.892637 -10.0973
1 0.321396 -0.725088 10.0359
1 -0.591185 -0.246663 9.93195
1 -0.20368 -0.187383 -10.1232
1 -0.987298 0.418876 -10.1056
1 -0.925048 0.804635 9.94352
1 3.03554 9.22578 -8.41305
1 2.25309 8.89044 -8.85452
1 2.04929 9.4317 -8.09569
1 1.95132 8.47984 -8.00082
1 1.39815 8.35343 -7.20663
1 1.11655 9.29383 -7.34824
1 1.53928 9.48001 -6.51694
1 2.14828 9.03763 -7.09077
1 2.08959 8.4085 -6.33828
1 1.12117 8.5148 -6.22267
1 -4.43514 5.5822 -10.4809
1 -3.98155 5.18093 9.72249
1 -3.642 6.06634 9.6304
1 -2.95482 5.98364 10.3158
1 -2.86152 5.19339 9.88111
1 -1.88478 5.31502 9.88926
1 -2.09192 5.18215 8.94393
1 -2.86197 5.75236 8.99628
1 -2.76055 6.59378 9.45962
1 -1.88048 6.36817 9.20186
1 -7.59068 4.73682 8.31181
1 -7.19258 4.17955 7.63627
1 -7.95611 3.79149 8.06768
1 -8.51818 3.40755 7.37608
1 -7.65163 2.93811 7.53381
1 -7.69884 2.09307 7.95979
1 -6.89901 2.35583 8.50228
1 -6.72014 1.44764 8.2195
1 -6.48611 1.51024 9.15717
1 -5.93706 1.6851 9.91785
1 5.38664 -4.80266 9.31747
1 5.77822 -4.93026 8.45589
1 5.82264 -4.85624 7.53073
1 6.61835 -5.38929 7.34404
1 7.46937 -5.21362 6.97146
1 7.79254 -6.06591 6.55463
1 7.89928 -6.67154 7.32194
1 6.98018 -6.46515 7.32359
1 7.00579 -6.88193 8.17598
1 7.67498 -7.50888 7.82926
1 7.44341 7.1763 3.49651
1 7.53056 7.86401 4.19987
1 6.74701 8.06265 3.63701
1 5.91943 8.01953 4.09218
1 6.54293 8.65092 4.43229
1 7.23148 8.36782 5.01577
1 7.53966 8.94518 4.29385
1 7.73489 9.88193 4.47298
1 8.27705 9.45035 3.77409
1 9.01914 9.37623 4.36187
1 1.64239 -7.54296 -4.02674
1 1.19482 -8.14508 -3.38227
1 1.08882 -8.65863 -2.58235
1 1.45718 -8.25564 -1.77682
1 2.16512 -8.63642 -2.18047
1 2.70459 -8.96452 -1.54331
1 2.31335 -9.46035 -0.82299
1 1.48587 -8.95455 -0.940992
1 1.54466 -9.56285 -0.198287
1 0.879155 -8.95618 0.104409
1 9.34076 3.98768 -5.33481
1 9.10223 4.74498 -5.90827
1 8.30455 4.69919 -5.34004
1 8.27216 4.69231 -4.32928
1 8.88213 3.94287 -4.44094
1 8.37094 3.57992 -3.72335
1 7.6964 3.57262 -4.39392
1 7.3472 4.28289 -3.84189
1 8.07937 4.56189 -3.24374
1 8.9337 4.1396 -3.06059
1 -9.61261 1.33176 -7.22898
1 -8.99913 1.46463 -6.51008
1 -8.5579 2.11259 -6.99152
1 -7.62527 2.28925 -7.21962
1 -7.31453 1.57483 -7.70054
1 -7.19202 0.862407 -8.28632
1 -7.14411 0.881228 -9.24687
1 -6.3203 0.347414 -9.17963
1 -6.8933 -0.110887 -9.92641
1 -6.28684 -0.735401 -9.51531
1 -10.3535 -8.74318 3.79915
1 -9.65114 -8.07712 3.57466
1 -10.4749 -7.53225 3.69366
1 10.2339 -7.93663 4.50275
1 10.2368 -8.7962 4.93764
1 -10.2952 -8.42826 5.69987
1 -9.88668 -7.5992 5.45627
1 -9.549 -6.70367 5.45809
1 -8.74562 -7.08145 5.6461
1 -8.74598 -6.27106 6.20481
1 -8.7979 -0.401087 -0.401145
1 -9.2178 -1.24456 -0.330558
1 -9.66314 -0.746233 0.310975
1 -8.96016 -1.26184 0.697399
1 -8.99622 -0.943971 1.61058
1 -8.90052 -1.70605 2.12558
1 -9.5772 -2.41961 2.43763
1 -10.4184 -1.98343 2.87912
1 -10.3671 -1.46304 3.65707
1 -9.52411 -1.51116 3.29143
1 8.85968 5.39866 7.36193
1 8.38042 4.62606 6.95937
1 7.54968 4.20098 6.69121
1 8.13749 4.6045 6.03267
1 9.1148 4.56664 5.80568
1 9.43096 4.58155 6.73
1 9.03063 4.20192 7.56438
1 9.80226 4.81363 7.68145
1 10.3836 5.5686 7.70028
1 -10.0557 4.85519 7.40088
1 -4.76148 4.68154 2.17292
1 -4.90893 4.31668 1.34051
1 -5.52847 4.98982 1.51517
1 -5.39212 5.70302 0.916716
1 -4.58658 5.24284 0.717266
1 -4.27937 5.43754 1.55713
1 -4.06704 5.35347 2.50811
1 -3.96649 4.90372 3.32942
1 -4.83177 4.36869 3.21104
1 -4.94544 5.33998 3.06468
1 -6.16164 -9.8209 9.50057
1 -6.17817 -9.33903 8.70146
1 -6.99629 -9.82709 8.98119
1 -6.58328 -10.3759 8.32861
1 -6.25989 10.3858 7.44337
1 -5.72638 -9.9793 8.07947
1 -4.96306 -9.62559 8.51453
1 -3.96267 -9.54315 8.52216
1 -4.20615 -9.19419 9.35744
1 -4.19666 -8.25213 9.1589
1 3.38323 -8.41659 -8.21939
1 3.16187 -8.49022 -7.3179
1 3.11392 -8.22574 -6.41865
1 2.70217 -7.31532 -6.44041
1 3.17375 -6.70082 -7.00176
1 3.09095 -7.38893 -7.64968
1 2.14403 -7.30932 -7.41716
1 1.93794 -6.37147 -7.68723
1 1.84007 -5.41015 -7.78269
1 2.77848 -5.58404 -7.58471
1 10.1996 6.37321 1.40054
1 10.4753 5.77747 2.00783
1 9.48268 5.78733 1.9685
1 8.56138 6.00417 2.16957
1 7.96585 5.25531 2.34275
1 8.16721 4.71301 3.11676
1 8.39734 3.70877 3.20107
1 7.77005 3.27278 3.79039
1 7.45391 2.35095 3.59238
1 8.14243 1.6793 3.34884
1 0.983197 -3.47695 7.09733
1 1.10502 -3.91174 6.19741
1 1.03331 -3.25315 5.52011
1 1.1051 -2.25134 5.34723
1 1.77917 -1.5106 5.47175
1 1.78048 -0.542123 5.16549
1 1.2296 -0.407525 5.97937
1 1.08666 -1.28337 6.29323
1 0.879223 -1.52687 7.16946
1 0.266611 -1.04393 7.71697
1 -7.70418 -4.95514 -3.04544
1 -6.84049 -5.30575 -2.84424
1 -6.36094 -5.02102 -2.16811
1 -6.25369 -5.48961 -1.35794
1 -6.94935 -5.22062 -0.710765
1 -7.1051 -4.25776 -0.557976
1 -7.82862 -3.73645 -0.921576
1 -7.29951 -2.99721 -0.64342
1 -6.5777 -3.38849 -0.204072
1 -6.16358 -4.09064 -0.778634
1 -6.48128 4.71176 5.70803
1 -7.10131 3.97299 5.52532
1 -7.98556 4.31142 5.22285
1 -8.1792 3.61528 4.5291
1 -7.32049 3.50331 4.15065
1 -7.81843 2.65725 4.13653
1 -8.65664 2.61602 4.60552
1 -8.80145 1.89196 4.08442
1 -9.37137 2.54835 3.72355
1 -10.0988 1.87124 3.63193
1 -3.79875 1.86051 1.219
1 -4.52248 2.0751 1.91888
1 -4.60667 1.17683 1.54104
1 -3.87466 1.26723 2.26442
1 -3.41565 0.464113 2.39055
1 -4.28984 0.364337 1.91177
1 -5.103 0.300683 1.38474
1 -5.95575 0.0479146 1.06565
1 -5.70429 -0.278518 0.232686
1 -5.32897 -0.820484 0.983405
1 -3.84274 10.0587 -8.05768
1 -4.03357 9.45127 -8.79588
1 -3.51157 8.82746 -9.36526
1 -2.94559 9.42934 -9.89906
1 -3.75105 9.98547 -9.80949
1 -3.27324 10.3358 10.4015
1 -3.15593 9.77377 9.69177
1 -2.26978 10.0541 9.52052
1 -2.14245 10.0841 8.56589
1 -2.50817 9.41295 7.98918
1 -4.03673 1.00541 -7.00546
1 -4.13589 1.39071 -7.93045
1 -4.59444 0.506784 -8.27306
1 -4.54457 -0.409717 -8.58902
1 -3.63636 -0.0052249 -8.69388
1 -3.44621 -0.375262 -7.89864
1 -4.13447 0.0428825 -7.39008
1 -4.89743 -0.359351 -6.88697
1 -5.53353 -1.09061 -6.92814
1 -6.29627 -0.643681 -7.28165
1 2.36836 1.52971 8.57466
1 2.3906 2.49498 8.3443
1 3.32034 2.84606 8.33157
1 3.62023 3.72834 8.41023
1 3.77941 4.3293 9.21385
1 3.93477 5.0611 8.7058
1 3.40106 4.75458 7.94457
1 2.72428 4.06017 7.84468
1 2.78716 4.40927 8.71744
1 2.59702 4.36221 9.65971
1 8.5711 -6.41822 0.125316
1 8.94684 -5.57693 0.452879
1 8.38575 -4.83795 0.862176
1 7.98341 -4.30227 0.231118
1 7.53832 -5.04619 -0.12976
1 7.21124 -4.97191 0.722071
1 7.18681 -4.08369 1.04906
1 7.16535 -3.17089 1.3856
1 7.95016 -3.14583 1.92007
1 7.99676 -2.29484 2.34867
1 4.2795 -10.2397 -2.55304
1 4.18521 -9.26684 -2.4839
1 4.6432 -8.82232 -1.81977
1 4.44344 -8.83918 -0.85186
1 4.26677 -8.28925 -0.0596752
1 4.3577 -7.55579 -0.661918
1 5.03739 -7.25788 0.0234273
1 5.00534 -7.22412 1.00572
1 5.65484 -7.70033 1.45078
1 6.33064 -8.3598 1.28701
1 6.89278 1.24624 0.638202
1 6.50585 0.603845 1.23452
1 5.96622 0.989011 0.500095
1 5.16447 1.1987 0.874867
1 4.7512 1.94404 0.527686
1 4.73074 1.59248 -0.368521
1 5.01208 2.30575 -0.963988
1 4.86716 1.88129 -1.82761
1 5.22341 1.89814 -2.8106
1 5.67819 1.165 -2.32125
1 7.31732 1.30175 9.76192
1 6.92274 1.50052 8.88716
1 6.45506 2.12159 8.23234
1 5.71398 2.05405 8.84403
1 5.84028 1.04644 8.56208
1 6.00453 1.09427 9.48577
1 6.00116 0.124535 9.70633
1 6.8647 -0.199917 10.0267
1 6.19547 -0.105048 -10.2848
1 5.38146 0.365836 -10.3422
1 -6.61088 -7.4225 3.41236
1 -6.80493 -7.71921 2.51456
1 -7.70926 -7.96376 2.56611
1 -8.45289 -8.15028 1.93781
1 -8.88163 -7.61291 1.31461
1 -8.78726 -6.85492 1.90806
1 -9.55596 -6.55906 2.31666
1 -9.64601 -6.92821 1.40323
1 -9.99696 -7.6382 1.92033
1 10.3267 -8.07916 1.32369
1 -5.63951 -1.43563 8.70771
1 -5.55882 -1.41254 7.77059
1 -6.3159 -0.948445 8.07455
1 -7.02156 -1.60123 8.16159
1 -7.41221 -0.807634 7.69992
1 -7.42413 -1.54644 6.99888
1 -6.6371 -0.984377 6.96094
1 -6.54753 -1.62322 6.17794
1 -6.29699 -2.5075 6.02884
1 -5.39459 -2.28642 6.27104
1 10.344 -8.23315 -8.38586
1 10.1206 -7.33222 -7.99343
1 9.98321 -7.69384 -7.06521
1 9.69638 -7.9622 -6.23243
1 8.95192 -7.57237 -6.82964
1 8.15771 -7.14752 -6.41427
1 8.14582 -7.00358 -7.38654
1 7.33983 -7.52228 -7.30065
1 6.347 -7.52236 -7.28503
1 5.99201 -8.31066 -6.89353
1 6.27944 2.28613 -3.86928
1 6.17398 1.60713 -3.08732
1 5.65791 1.33376 -3.84072
1 5.24959 1.54171 -4.67709
1 4.50775 1.79143 -5.37933
1 4.53438 2.41813 -4.69765
1 3.62249 2.76893 -4.62235
1 3.89962 2.29437 -3.84038
1 4.42501 2.56127 -3.08516
1 5.14652 2.4451 -3.71686
1 -3.52821 1.12226 3.55695
1 -3.15428 1.91563 3.18736
1 -2.9845 2.22002 4.12544
1 -3.75131 2.7172 4.52788
1 -4.63442 3.06906 4.34138
1 -4.21006 3.73536 3.80479
1 -3.58494 3.83586 3.13187
1 -4.32313 3.5573 2.61086
1 -3.94304 2.69105 2.85671
1 -4.40578 1.82885 2.98084
1 6.53787 3.21282 -1.72258
1 6.11136 2.85813 -0.902334
1 6.77578 3.4041 -0.529966
1 7.63869 3.11091 -0.885519
1 7.5019 3.68877 -1.64451
1 8.16566 4.13937 -2.29207
1 8.91255 4.09921 -1.66197
1 9.72731 4.3668 -1.07554
1 10.1373 4.78881 -0.365412
1 10.1656 4.51709 0.520739
1 -8.72575 6.45298 -4.57395
1 -9.34269 6.65055 -3.87159
1 -10.0905 7.15665 -3.58298
1 -9.90641 6.7005 -2.72122
1 -9.08398 6.19339 -3.01419
1 -9.11956 6.21259 -2.08951
1 -8.71498 5.97736 -1.27479
1 -8.11906 6.16688 -1.97738
1 -7.26418 5.72445 -2.15927
1 -6.89347 6.60691 -1.91829
1 -8.05496 6.48985 2.54183
1 -8.31044 7.43134 2.482
1 -8.19349 8.37902 2.33823
1 -7.38689 8.89586 2.18918
1 -7.08406 9.6842 1.69173
1 -6.38027 10.1048 1.19879
1 -5.69587 -10.1679 0.889403
1 -5.65501 -9.24278 0.995798
1 -4.77873 -8.80727 1.02208
1 -5.12581 -8.50719 0.194268
1 -0.332126 -0.773566 6.57111
1 -0.463353 -0.357361 7.38243
1 -0.737451 -0.976899 8.08586
1 -0.906335 -1.44425 7.29863
1 -1.02924 -2.43087 7.20193
1 -0.507976 -3.23247 7.04753
1 0.204115 -2.91874 7.59153
1 0.262142 -3.58675 8.21086
1 0.683023 -4.20183 8.73038
1 0.361218 -4.58811 9.55393
1 -8.86056 0.678485 -5.55702
1 -9.11128 -0.145217 -5.16961
1 -8.73658 -1.03355 -5.03608
1 -8.46811 -0.624449 -4.17578
1 -8.54932 -0.473131 -3.21162
1 -9.16398 -0.761867 -2.50755
1 -9.94716 -0.383168 -2.98573
1 -10.226 -0.521162 -2.08105
1 10.1705 -0.74452 -1.34623
1 -9.99048 -0.560734 -0.708402
1 3.3533 8.33675 -4.95478
1 2.79299 7.99724 -5.69576
1 3.12954 7.11977 -5.90789
1 3.08942 6.1193 -6.03675
1 2.64888 5.24079 -5.97225
1 2.84082 4.41676 -6.50389
1 1.93844 4.1625 -6.65601
1 1.22696 4.61988 -7.07608
1 1.21335 3.68105 -7.08653
1 0.970364 3.96994 -6.1108
1 4.69491 4.18354 -7.59511
1 5.45885 3.84643 -7.14015
1 4.6559 3.50953 -6.71013
1 5.01356 2.70857 -6.30667
1 5.52087 2.56765 -7.12058
1 5.38616 2.70433 -8.05749
1 4.59265 2.27707 -7.77629
1 3.69308 2.48303 -8.15511
1 2.92966 2.56095 -8.67554
1 2.56181 2.17644 -7.8997
1 -5.92774 3.66714 -0.273649
1 -6.36671 4.40467 -0.752201
1 -5.95576 5.27583 -0.399145
1 -6.79009 4.92146 0.0398434
1 -5.96977 4.74462 0.533648
1 -6.2471 3.85527 0.724062
1 -6.89032 3.77952 -0.0231612
1 -6.87015 3.4385 -0.921088
1 -7.44671 3.40109 -1.68546
1 -6.71995 3.98194 -1.90451
1 -8.92367 -7.42072 -5.91886
1 -8.09111 -7.64356 -6.16964
1 -8.13688 -6.68698 -5.84855
1 -7.99254 -6.13189 -5.05401
1 -7.97774 -6.09567 -4.08112
1 -7.97495 -5.15218 -4.36419
1 -7.00954 -5.41967 -4.45387
1 -6.21779 -5.40231 -5.03774
1 -5.85468 -6.09404 -4.4867
1 -6.09099 -6.99861 -4.70297
1 -1.36208 0.376923 4.19006
1 -2.27254 0.41356 4.54392
1 -2.6006 1.27304 4.22945
1 -2.16637 1.63085 5.07206
1 -1.82349 1.89796 4.1953
1 -2.05739 2.73348 3.68879
1 -1.2589 3.27872 3.89499
1 -1.32054 2.81182 4.68794
1 -1.2087 2.00562 5.17832
1 -1.36759 1.06797 5.52702
1 9.21285 -2.67632 -9.03142
1 9.58486 -2.48557 -9.87371
1 9.18992 -1.60245 -9.99999
1 9.70707 -1.9013 10.1923
1 8.86939 -1.89868 9.68544
1 9.00177 -2.6858 10.2367
1 8.09262 -2.40919 10.1151
1 8.24299 -3.31503 10.4114
1 8.46107 -2.91331 -9.74188
1 8.33828 -1.95616 -9.85542
1 7.6938 4.07566 2.32073
1 8.59867 4.24817 2.16113
1 9.01713 5.05002 2.57058
1 9.93588 4.91506 2.59499
1 -10.0255 4.72113 2.45289
1 -10.0381 5.16825 3.26851
1 10.1229 4.85406 3.71489
1 -10.44 4.33578 4.41671
1 -10.0743 4.97511 5.05821
1 -9.24625 4.40683 4.91658
1 5.61099 -6.26581 5.00834
1 6.12308 -6.38691 5.88532
1 6.81387 -5.95235 6.33961
1 7.14814 -6.70579 5.84988
1 6.67098 -6.78119 5.00813
1 7.53696 -6.49618 4.65703
1 7.74639 -7.39724 4.59653
1 6.83919 -7.77318 4.60202
1 6.30429 -8.51218 4.66144
1 5.53663 -8.16596 4.97735
1 1.16876 9.01487 -2.36257
1 1.65805 8.25216 -2.05196
1 2.3521 7.82455 -2.44761
1 2.00363 7.0094 -2.07799
1 2.11019 6.0719 -2.16918
1 1.50448 5.39865 -2.00914
1 1.45813 6.02922 -1.25107
1 2.18105 6.35754 -0.721932
1 2.82378 5.66708 -0.676685
1 2.0291 5.20055 -0.791685
1 7.35627 4.02569 -8.36078
1 7.50862 3.28261 -8.96128
1 7.80241 2.56901 -9.54557
1 8.34751 2.43697 -10.2763
1 7.393 2.38691 10.3735
1 7.06902 3.18513 -10.1638
1 7.15775 3.36334 9.88967
1 7.98714 3.33539 10.3471
1 7.97658 4.04104 9.63832
1 8.32742 4.88067 9.89622
1 8.29422 6.24565 6.80199
1 7.85884 7.01118 6.32813
1 7.31804 7.73804 6.69426
1 7.3942 8.65121 6.46295
1 6.9091 8.82127 7.20449
1 6.06492 8.83087 6.78622
1 5.26429 8.80515 7.4121
1 4.5041 8.74247 6.78969
1 4.2309 8.18292 7.55095
1 3.57111 7.58194 7.14346
1 10.2462 -5.17411 6.25527
1 9.47377 -5.38876 6.82491
1 9.07582 -4.68548 6.26577
1 8.32935 -5.3167 6.06307
1 9.09181 -5.64115 5.67625
1 8.78599 -6.41323 6.09641
1 8.1208 -7.1092 6.34841
1 8.70133 -7.58367 5.76618
1 9.55014 -7.99089 5.98957
1 10.0664 -7.80839 6.7958
1 3.13863 7.29681 0.849791
1 3.62051 6.60664 0.320185
1 2.70196 6.36709 0.510363
1 2.07065 5.64494 0.501955
1 1.32964 5.62714 -0.14692
1 0.906539 6.01064 0.616081
1 1.01908 6.90352 0.233838
1 1.7481 6.66169 0.816064
1 1.20689 7.08489 1.53942
1 1.25907 6.09613 1.69807
1 -0.113953 0.381822 8.06803
1 -0.530883 -0.316212 8.81939
1 -1.10036 -0.946529 9.18568
1 -1.8359 -1.26451 8.59678
1 -1.95537 -2.19624 8.47516
1 -1.07974 -1.94912 8.80919
1 -0.494023 -2.36199 8.2218
1 0.266723 -2.25481 8.87181
1 -0.0941853 -1.69764 9.55055
1 0.211382 -1.05347 8.88799
1 7.45169 1.03805 -9.14644
1 7.14386 0.60323 -9.97119
1 7.56039 -0.209794 -9.63203
1 6.75962 -0.0205726 -9.17101
1 6.50825 -0.463079 -8.40015
1 6.48202 -0.831902 -7.51768
1 6.19173 -1.69456 -7.09332
1 7.11507 -1.59803 -7.30423
1 7.34867 -2.26983 -6.64587
1 7.47274 -3.21346 -6.79323
1 -3.37347 4.2842 4.13419
1 -3.0762 3.38212 3.92727
1 -2.40408 4.01973 3.60574
1 -1.68074 4.25281 4.21947
1 -2.49813 4.13569 4.80167
1 -2.54911 3.97777 5.75005
1 -2.52127 4.92503 5.48356
1 -2.41743 5.8858 5.4093
1 -1.87375 6.24707 4.68744
1 -1.23808 6.11253 5.37888
1 3.85259 6.20919 -6.92752
1 4.41865 7.00333 -6.86465
1 3.49355 7.2603 -6.88094
1 2.81935 8.00072 -7.01907
1 2.97382 8.29969 -7.85967
1 3.72071 8.22701 -8.43741
1 4.27779 7.87089 -7.68495
1 4.98946 7.95538 -7.00912
1 4.76233 8.93702 -7.07417
1 4.32269 9.65085 -6.63761
1 -9.45867 1.72579 -3.86529
1 -8.89061 1.49889 -4.59751
1 -9.08622 1.85321 -5.44758
1 -8.25965 1.65623 -5.91591
1 -7.92967 1.15483 -5.16343
1 -7.13969 0.706744 -5.49519
1 -6.35489 0.130915 -5.46315
1 -5.53018 0.241637 -5.00712
1 -6.15855 0.921621 -4.97879
1 -6.184 1.30334 -4.10218
1 5.94741 -6.39698 8.12422
1 6.50477 -5.57913 8.33864
1 6.82366 -4.77171 8.70159
1 7.12093 -3.90666 8.9963
1 7.04974 -4.25823 9.82316
1 7.43629 -5.12531 9.6135
1 7.83869 -4.8376 8.80865
1 8.45366 -5.62444 8.767
1 8.07229 -5.6217 7.89952
1 7.45537 -5.9294 8.6405
1 1.367 -7.47955 -9.46082
1 1.85989 -7.0203 -8.70712
1 1.91265 -7.9338 -8.40635
1 1.09068 -7.53207 -8.13187
1 0.531453 -8.25676 -7.83982
1 -0.205261 -8.15883 -7.28114
1 -0.596138 -8.79788 -6.65998
1 -1.2095 -9.54544 -6.58143
1 -1.19455 -9.61935 -5.57143
1 -0.322422 -9.33402 -5.70829
1 0.236652 -8.728 -9.63016
1 0.527622 -8.00926 -9.06737
1 0.301764 -7.35608 -9.75397
1 0.632592 -7.62759 10.3888
1 1.07492 -8.47671 10.0688
1 0.210822 -8.45143 9.61494
1 -0.650629 -8.57918 10.0058
1 -0.86087 -7.97821 -10.2376
1 -0.873668 -7.14098 -9.81605
1 -1.34698 -6.33711 -9.59932
1 2.25335 1.06123 -1.45921
1 2.49939 1.88877 -1.16904
1 2.7624 1.82336 -2.1045
1 3.52796 1.89681 -1.57341
1 4.19704 1.30892 -1.38942
1 5.00493 0.748527 -1.36765
1 5.50562 1.47958 -1.08925
1 6.33992 1.87436 -0.662787
1 6.91298 2.10954 -1.44924
1 6.80171 1.48079 -2.25162
1 -8.2966 3.69136 -4.9297
1 -8.86542 4.05258 -4.21864
1 -9.33711 4.89488 -4.00924
1 -9.91657 4.16995 -3.96863
1 -10.0655 3.21019 -3.98376
1 10.0272 3.06288 -4.57091
1 -10.3469 2.50538 -5.12121
1 -10.3688 1.99396 -4.25889
1 -10.2284 2.31886 -3.29206
1 -9.33675 2.6272 -3.46115
1 -2.17862 -6.03255 6.14646
1 -1.492 -6.68875 5.81494
1 -1.10659 -5.79414 5.9615
1 -1.7055 -5.21466 6.45698
1 -2.63117 -5.09367 6.76341
1 -2.11004 -4.29474 6.94024
1 -1.1594 -4.05623 6.77707
1 -1.6678 -4.11104 5.98452
1 -1.21536 -4.80192 5.59317
1 -0.872887 -5.48964 4.9554
1 -8.28478 7.94258 -5.61083
1 -8.96554 8.58343 -5.21062
1 -9.93199 8.59167 -5.10993
1 -10.3658 8.76198 -5.95185
1 -10.4158 8.43538 -6.8249
1 -9.90495 8.44138 -7.59826
1 -10.3749 8.84105 -8.29448
1 -9.82864 8.26252 -8.71111
1 -9.91042 7.39863 -9.21333
1 10.2273 7.6571 -9.62006
1 -3.07844 4.29132 10.388
1 -2.18616 4.29887 -10.1229
1 -2.77235 4.41728 -9.4015
1 -2.32636 5.10437 -8.8843
1 -2.09951 4.40333 -8.28614
1 -1.72862 4.40802 -7.42572
1 -0.930858 3.98476 -7.04356
1 -1.06106 4.32394 -6.14344
1 -0.155989 3.92006 -6.03504
1 0.0550345 3.63983 -5.19054
1 -8.32497 -8.1142 -4.03043
1 -9.01802 -8.46355 -4.59781
1 -9.5223 -9.06911 -3.98248
1 -10.1976 -9.05037 -4.66546
1 -10.0102 -9.83622 -5.16093
1 -9.2137 -9.70709 -4.68979
1 -9.14309 -10.1338 -5.52751
1 -9.63977 10.3758 -6.17273
1 -9.46545 9.76298 -5.45985
1 -8.68851 9.89419 -5.98596
1 -2.77517 7.99718 1.43572
1 -3.15696 8.61143 0.884041
1 -4.03473 8.98491 1.1281
1 -4.66324 9.43861 1.71225
1 -4.71958 10.3036 2.1171
1 -4.79166 -9.95888 1.4635
1 -3.91786 -9.7745 1.03779
1 -3.07956 -9.57884 0.592487
1 -2.29375 -9.15777 0.302904
1 -2.45751 -10.0692 0.0892965
1 -6.64094 -4.96812 2.11544
1 -6.88381 -4.14095 1.57824
1 -6.42877 -4.17054 0.74953
1 -5.61883 -4.56637 1.08538
1 -5.92366 -5.40932 1.51312
1 -5.55666 -4.8747 2.20175
1 -5.10133 -5.37472 2.93924
1 -5.21238 -5.02132 3.86042
1 -5.54393 -5.81733 4.25246
1 -6.2388 -5.39353 4.83851
1 -6.65821 1.6431 4.33302
1 -7.59822 1.68672 4.24877
1 -8.27289 1.39133 4.89328
1 -8.38387 0.729832 4.2549
1 -7.88805 -0.127498 4.3577
1 -7.32135 0.63356 4.17133
1 -6.41924 0.774378 3.82532
1 -5.68072 1.34463 3.57335
1 -5.91724 2.29299 3.51588
1 -5.02823 2.54924 3.42531
1 -6.55038 -9.53281 7.63663
1 -7.32887 -9.19421 7.20717
1 -7.53084 -8.29255 6.84972
1 -6.58214 -8.38773 7.05444
1 -6.82995 -7.49767 6.86358
1 -7.03478 -6.60041 7.22446
1 -7.83504 -7.00448 6.68085
1 -7.96722 -7.0184 7.64239
1 -7.17983 -7.34299 8.11512
1 -7.63129 -6.65101 8.57374
1 -3.4721 -2.96037 -1.54215
1 -3.9572 -3.18393 -0.687523
1 -3.59659 -3.64393 0.0651052
1 -3.72687 -4.64332 -0.158242
1 -4.03919 -5.08563 0.581077
1 -4.68392 -5.34102 -0.0942898
1 -4.07989 -6.06871 -0.386241
1 -3.22317 -5.56149 -0.274469
1 -3.11931 -6.54538 -0.168591
1 -2.2038 -6.81737 -0.187874
1 1.95316 -3.10645 5.6069
1 2.24137 -3.13959 6.53464
1 1.48933 -2.55328 6.56929
1 1.2799 -2.62212 7.45096
1 1.88344 -3.27419 7.72733
1 2.55041 -3.81887 7.29607
1 1.91156 -4.4936 7.0908
1 1.58775 -5.27965 7.43784
1 2.03011 -5.08512 8.27729
1 1.62321 -4.22676 8.55754
1 -1.77068 -2.11569 1.50582
1 -2.4347 -1.88761 2.10022
1 -2.94822 -1.74293 2.88681
1 -3.34587 -1.06694 3.41565
1 -2.88681 -1.7482 3.90882
1 -3.22245 -2.64554 3.71668
1 -2.67454 -2.97782 3.00847
1 -2.43501 -3.2141 2.1293
1 -3.1903 -3.83844 1.98981
1 -3.39978 -4.81117 1.86265
1 5.28642 -10.2144 -7.62658
1 5.9459 10.2313 -8.00381
1 5.82045 9.575 -8.73329
1 6.33559 9.12209 -9.39245
1 7.1467 8.8185 -9.93082
1 6.78153 8.1161 -9.43262
1 6.24067 7.85742 -10.2517
1 6.62526 6.95014 -10.06
1 7.03222 6.38568 10.3083
1 7.56938 6.9467 9.71643
1 -7.55892 9.22727 10.3705
1 -8.35051 8.79362 10.0682
1 -8.39547 8.71164 -9.97654
1 -9.31808 8.65979 -9.56476
1 -10.0775 9.23895 -9.69614
1 -9.38255 9.70021 -9.07458
1 -9.1208 9.61118 -9.92385
1 -9.59512 10.4824 -9.89306
1 -8.7252 -10.1539 -9.91527
1 -8.02402 -10.0951 -9.26668
1 0.587119 4.60433 8.1915
1 0.272384 3.72183 8.10253
1 0.866589 3.55395 7.36732
1 0.929463 2.57499 7.12571
1 0.26695 2.56418 7.82414
1 -0.528405 2.4882 7.34791
1 -1.10085 1.70753 7.04099
1 -0.752699 0.8181 7.23301
1 -0.501516 0.44082 6.35786
1 -0.529385 1.40247 6.02011
1 1.1675 1.36455 -4.13715
1 1.14241 2.20906 -4.74297
1 1.97309 2.66972 -4.80868
1 1.50225 3.36894 -4.3222
1 1.31027 4.12067 -3.71465
1 0.484709 3.74146 -3.45906
1 0.948894 2.8869 -3.54661
1 0.406191 2.0882 -3.66866
1 0.0326287 1.34925 -4.11351
1 -0.451918 1.44839 -4.90603
1 3.67679 9.53787 1.36373
1 4.45269 9.07454 1.14326
1 4.83323 9.92595 1.52191
1 4.49895 9.97778 0.628975
1 5.42833 10.1648 0.454111
1 4.88294 -10.0454 0.0104878
1 4.08386 -9.41633 -0.0431078
1 3.20892 -9.18568 -0.374503
1 3.54752 -10.0503 -0.75119
1 3.5859 9.93178 -0.52488
1 0.246249 10.3611 0.817313
1 0.0316512 -9.76321 0.410214
1 0.362191 -9.3138 1.12905
1 1.2946 -9.24829 1.38134
1 1.69759 -8.87741 0.552168
1 2.13445 -8.53304 -0.2006
1 1.36948 -7.97796 -0.263273
1 0.589798 -8.39567 -0.752371
1 0.675661 -7.50183 -1.06959
1 0.354908 -7.42456 -0.188476
1 -9.56093 -2.84056 9.14422
1 -9.47812 -3.65921 8.75196
1 -8.66214 -4.12307 8.901
1 -8.86125 -3.48516 9.55571
1 -8.89499 -3.418 -10.461
1 -8.24288 -3.17071 -9.83934
1 -8.28105 -4.09252 -9.795
1 -7.43213 -4.55976 -9.80556
1 -7.31805 -3.57336 -9.77304
1 -6.78899 -3.96452 -10.4218
1 -5.69418 5.95715 -8.93443
1 -4.96087 5.73432 -8.32926
1 -4.18654 6.31349 -8.1837
1 -4.99373 6.81195 -8.36183
1 -4.79413 7.46802 -7.68449
1 -3.85253 7.37263 -7.67554
1 -3.95107 8.28247 -7.45619
1 -3.00167 8.44352 -7.42228
1 -3.30573 8.91452 -8.21507
1 -2.90427 9.71455 -8.48637
1 -10.4117 -6.40963 8.45182
1 10.0804 -6.45827 7.65323
1 9.6485 -5.62239 7.79862
1 9.36734 -4.75551 7.61014
1 8.53444 -4.85581 7.19433
1 8.82314 -3.97092 7.33785
1 9.41146 -3.25458 7.72792
1 9.95784 -3.97611 7.98023
1 -10.2568 -3.69181 7.47215
1 10.4416 -3.06774 8.19157
1 3.50292 6.0414 -10.4393
1 2.81173 5.83339 -9.8581
1 1.95719 6.00657 -9.47584
1 1.25241 6.57091 -9.92456
1 0.739365 6.47329 -9.14296
1 0.416219 5.87928 -9.82782
1 0.78962 5.35817 -9.06398
1 1.22827 5.06929 -8.23161
1 2.11732 5.39253 -8.46184
1 2.81255 5.02224 -8.96037
1 6.82033 7.63464 2.43652
1 7.47432 7.16508 1.96494
1 6.75789 7.13713 1.31311
1 6.81308 6.24248 1.38407
1 7.72644 6.3251 1.28434
1 7.39106 6.70175 0.526074
1 7.18299 7.04799 -0.380985
1 8.15584 7.01968 -0.391347
1 8.60688 6.75609 0.426557
1 8.6066 6.85334 1.37251
1 -10.2385 10.3635 8.46234
1 -9.52323 10.0479 8.96135
1 -8.69893 10.0628 8.47862
1 -9.25134 -10.2875 8.06744
1 -8.49718 -9.777 8.47849
1 -8.57654 -9.65621 7.51311
1 -8.32736 10.4131 7.60411
1 -7.54707 -10.1527 8.00164
1 -7.39562 9.86208 7.97322
1 -7.24974 8.7778 8.07781
1 -5.00467 -9.82213 -1.13963
1 -5.21075 10.2317 -0.990251
1 -4.43096 10.0139 -0.414839
1 -4.13845 -9.99688 -0.370432
1 -4.67816 -9.71341 0.327204
1 -3.93457 -9.02878 0.225748
1 -4.15827 -8.27913 -0.360011
1 -4.22879 -9.05086 -0.886502
1 -4.39968 -9.31073 -1.89953
1 -5.24132 -9.23981 -2.31588
1 -3.7466 -1.05117 -2.25883
1 -3.35179 -1.21544 -1.3674
1 -3.51441 -1.92756 -1.93889
1 -3.23751 -2.17207 -2.80506
1 -2.57628 -2.65251 -2.40344
1 -1.66609 -2.80232 -2.55236
1 -2.00172 -3.70469 -2.58821
1 -2.41277 -3.45771 -1.67935
1 -1.61971 -4.0713 -1.67621
1 -0.860058 -3.94439 -2.21164
1 -5.87248 -4.76703 -5.74659
1 -6.6907 -5.2406 -5.92412
1 -7.38674 -5.86153 -6.09124
1 -6.72715 -6.3478 -5.56902
1 -7.06258 -6.4617 -4.64946
1 -7.47406 -7.01098 -3.98586
1 -7.77937 -7.20343 -4.83658
1 -8.16496 -7.98904 -5.23802
1 -7.38276 -8.36865 -4.86044
1 -6.92797 -7.61331 -4.48369
1 6.9246 6.91605 -9.02354
1 7.46552 6.34791 -9.63788
1 8.1826 6.49429 -9.0807
1 7.87243 6.35102 -8.19861
1 7.11475 6.93984 -7.92681
1 6.70686 7.68722 -8.34963
1 6.97048 8.60601 -8.16402
1 7.67804 7.99108 -8.16944
1 8.41331 7.47188 -8.3268
1 7.78356 7.64604 -9.0945
1 -4.13292 -7.45099 5.32057
1 -4.42137 -8.01419 4.6143
1 -3.79431 -8.03808 3.89555
1 -2.79425 -8.01104 3.76552
1 -3.19877 -8.67404 3.17084
1 -3.56226 -9.15808 2.42862
1 -3.38944 -8.74838 1.63143
1 -3.35987 -7.74539 1.69728
1 -3.42483 -6.78287 1.59227
1 -2.75573 -7.19057 1.01361
1 -6.31977 -6.95997 -3.71339
1 -5.43539 -6.78537 -3.30141
1 -5.0591 -7.00191 -4.17725
1 -4.10545 -7.06787 -4.18473
1 -3.1816 -6.89968 -4.0974
1 -2.54263 -6.14203 -3.95697
1 -3.39188 -5.75693 -4.05922
1 -4.18672 -6.20694 -3.64638
1 -4.04751 -5.41812 -3.15545
1 -4.38014 -5.11999 -4.04574
1 2.15539 -9.50197 -2.60257
1 1.66182 -9.50309 -1.78111
1 1.43059 -10.1742 -1.09776
1 0.604639 -9.76746 -0.842757
1 -0.350532 -9.69174 -0.879922
1 -0.149879 10.4029 -1.31045
1 0.298799 9.7526 -1.75319
1 0.68732 9.94624 -0.899407
1 1.01189 10.4229 -0.173798
1 1.27969 -9.99658 0.610642
1 -7.88064 6.18787 7.95806
1 -7.67454 5.79138 8.78725
1 -7.52105 5.62714 9.70376
1 -8.11338 6.1384 10.2263
1 -7.79859 5.57564 -9.94908
1 -8.22192 5.06036 10.3461
1 -9.05154 5.51521 -10.3517
1 -9.89913 5.1307 10.3999
1 10.2029 4.7847 10.2181
1 10.1246 5.66692 9.96318
1 -4.88647 4.61326 -0.325553
1 -4.4581 4.13095 -0.995606
1 -3.75644 3.46272 -0.823414
1 -3.80714 3.97074 -0.0116509
1 -3.62309 4.60231 0.714252
1 -2.89075 3.90096 0.902745
1 -2.16252 3.37439 0.625563
1 -2.00799 4.31607 0.671007
1 -1.43901 3.80419 0.00714317
1 -2.02691 3.2505 -0.516031
1 0.98436 -4.35873 7.63129
1 0.946385 -5.16798 8.14618
1 0.109443 -5.14745 8.6227
1 -0.64827 -5.12067 8.09618
1 -0.715384 -4.19152 7.88701
1 -0.342563 -4.18742 8.77452
1 -0.222377 -3.58467 9.54059
1 -0.199945 -3.00811 10.2686
1 -0.793245 -3.60815 -10.2219
1 -0.69002 -3.83285 -9.20726
1 6.72197 10.1933 -1.49134
1 5.95728 9.55532 -1.3954
1 5.91361 9.72059 -0.438204
1 5.42159 8.8454 -0.610471
1 5.58994 7.96341 -0.30773
1 5.10144 7.46108 0.353998
1 4.70777 7.05472 -0.46097
1 4.84526 6.13714 -0.223062
1 4.64186 6.59374 0.682844
1 5.54502 6.47445 0.898637
1 1.09234 -9.48903 -10.1324
1 1.86841 -9.39319 10.3786
1 1.50078 -10.1818 9.83213
1 1.08048 -9.65479 9.17948
1 0.250348 -9.28875 8.73906
1 -0.259291 -8.89479 8.01723
1 0.579229 -8.46473 7.87026
1 0.783872 -9.35548 7.48356
1 0.395743 -8.93007 6.7201
1 0.884591 -8.14952 6.95364
1 4.92583 3.28988 2.59732
1 5.82928 3.04237 2.5017
1 5.88333 2.28046 3.01976
1 6.47748 2.13346 3.7976
1 6.45164 1.41962 3.24807
1 6.75358 2.07253 2.62108
1 7.59024 1.50724 2.52657
1 7.58979 1.14631 1.60087
1 7.18805 0.408796 2.03079
1 6.66478 1.18129 2.00334
1 -7.90319 -5.2738 8.94386
1 -7.95862 -5.65832 9.81956
1 -7.47857 -4.89177 10.102
1 -6.61955 -5.11986 10.429
1 -5.67312 -4.75664 10.3279
1 -5.10665 -4.79155 9.52489
1 -5.75167 -5.3364 9.15452
1 -6.23662 -5.9239 9.81774
1 -7.00682 -6.03819 9.29394
1 -6.89587 -5.19783 8.73175
1 9.9439 -1.25178 2.33342
1 9.56286 -0.878765 1.50069
1 9.05805 -1.65583 1.87018
1 8.84268 -1.43542 0.934016
1 9.36819 -1.80263 0.209277
1 9.75906 -2.65335 -0.1408
1 10.2394 -2.32725 0.614255
1 -9.78423 -2.02309 0.543135
1 -9.11091 -2.25034 1.21069
1 -8.90581 -3.01966 1.81288
1 -2.287 2.40306 9.29447
1 -2.62764 2.98694 8.69068
1 -1.89953 2.57202 8.32195
1 -1.74878 1.62775 8.10416
1 -1.85192 0.796647 7.6303
1 -1.59969 0.612551 6.71745
1 -2.2826 0.0161651 7.04969
1 -2.78336 -0.530238 7.61142
1 -3.24107 -0.287525 6.84383
1 -3.29999 0.470003 7.44908
1 -0.446609 4.10537 -9.43185
1 -0.13386 3.93069 -10.3343
1 -0.286041 4.66343 10.073
1 0.665057 4.56342 9.94878
1 1.72193 4.46755 10.1638
1 1.68163 4.39084 9.25484
1 1.39327 3.45238 9.02246
1 1.72601 2.61383 9.16116
1 1.03704 2.42442 8.53001
1 1.10101 1.47576 8.46807
1 -9.59393 1.92186 0.371466
1 -8.78221 1.51419 0.741494
1 -9.20481 1.92035 1.48247
1 -8.45954 1.89739 2.17287
1 -8.72978 0.953488 2.16834
1 -7.9136 0.498489 2.2637
1 -8.52385 -0.223455 2.32027
1 -7.66622 -0.556278 2.42516
1 -8.29636 -0.920495 2.98564
1 -8.66612 -0.441469 3.70576
1 -0.47381 9.4439 0.404084
1 0.486667 9.45818 0.345478
1 0.518161 9.25426 1.2498
1 1.16863 9.85993 0.94079
1 1.48476 9.3893 0.0950925
1 1.6869 8.76059 0.765992
1 2.22743 9.48611 1.10098
1 2.26082 10.2982 0.632983
1 2.866 -10.3463 -0.0814617
1 3.20264 9.95506 0.549462
1 2.14043 -5.64215 9.21243