8000
Atoms. Timestep: 10000000
1 7.34359 9.65192 1.80908
1 8.04997 10.2779 2.08208
1 8.33292 -10.2113 1.80467
1 9.01733 -9.56231 1.96785
1 9.48477 -9.09983 1.24571
1 9.36959 -9.5726 0.432844
1 9.3353 -8.97277 -0.24697
1 8.67707 -9.71028 -0.425205
1 8.44712 -9.45756 -1.44104
1 7.61409 -9.14892 -1.28173
1 1.65298 -5.34696 -9.58411
1 1.99146 -5.30926 -8.61924
1 1.85066 -4.36817 -8.79892
1 1.71806 -4.29074 -9.77984
1 0.879192 -4.04825 -9.42642
1 0.244292 -3.85442 -8.76243
1 0.744437 -4.51703 -8.22922
1 0.753643 -5.10489 -9.01086
1 0.848398 -5.55993 -8.20295
1 1.58792 -5.94499 -7.86722
1 -0.0666363 7.13649 -6.24805
1 -0.347737 8.04882 -6.29922
1 0.404917 7.92603 -7.02678
1 0.106743 8.35174 -7.84249
1 0.336142 7.49571 -8.2431
1 0.210615 6.58068 -8.60216
1 -0.143913 5.74568 -8.82917
1 -0.757931 5.73108 -8.03978
1 -0.377951 6.52352 -7.65991
1 0.541032 6.72852 -7.55677
1 10.2053 -4.28419 -5.74904
1 -10.2011 -4.45808 -5.89914
1 -10.4187 -4.14031 -6.74633
1 10.357 -4.5597 -7.45532
1 -10.1606 -4.1101 -7.67467
1 -10.1411 -3.20257 -7.2863
1 -10.4919 -2.7972 -6.41616
1 -10.0299 -2.28548 -5.72005
1 -9.57594 -2.29858 -6.60994
1 -9.38506 -3.21095 -6.44609
1 5.38921 0.0570083 4.0571
1 5.08005 0.0132019 3.14603
1 5.073 0.588204 2.38807
1 4.2457 1.13331 2.27205
1 3.56189 0.610675 2.79565
1 2.84476 1.24221 2.85188
1 2.06377 0.709804 2.60191
1 2.44329 0.0196885 2.04632
1 2.86686 0.86278 1.91888
1 3.57793 0.989042 1.25993
1 0.339054 0.245442 1.94989
1 1.19393 0.360392 2.25074
1 0.930085 1.15104 1.83808
1 0.915882 1.52778 0.97035
1 1.80558 1.60004 1.20703
1 2.20839 2.05718 0.436785
1 1.81158 2.25169 -0.392259
1 2.25213 1.57274 -0.928838
1 2.80999 2.33417 -1.00423
1 2.67271 2.28287 -1.91629
1 -3.12393 0.0977529 -5.54138
1 -3.73777 0.359972 -4.82982
1 -2.9514 0.811967 -4.56524
1 -2.57972 1.11671 -5.38474
1 -3.31851 1.59177 -5.06538
1 -3.98135 1.82704 -5.73676
1 -3.18219 2.29413 -5.78549
1 -3.54092 2.5788 -4.89326
1 -3.63139 3.13572 -5.62531
1 -3.29292 3.99225 -5.51546
1 -4.62248 0.709917 -10.2417
1 -5.56923 0.724883 -10.3617
1 -6.07541 0.911482 10.2652
1 -5.54357 1.31663 9.60292
1 -5.06133 0.59769 9.9347
1 -4.39987 0.379445 9.26238
1 -4.15613 1.03278 9.99811
1 -3.25776 0.713427 9.86562
1 -3.55889 0.312609 10.6247
1 -2.75859 0.690308 -10.3288
1 4.12207 3.73696 0.164158
1 3.38384 3.26855 -0.0785335
1 2.77829 3.65688 0.481174
1 2.74722 3.59072 1.39881
1 3.57764 4.10012 1.16432
1 4.49913 3.79653 1.37174
1 3.91185 2.98634 1.48746
1 3.86644 2.95509 2.43624
1 3.42885 3.8098 2.31609
1 2.89878 3.04476 2.59077
1 -7.58513 -7.44959 3.08696
1 -7.25278 -6.49224 2.92453
1 -6.53637 -6.63019 2.28573
1 -6.25551 -6.88265 1.45215
1 -5.91787 -7.79356 1.27136
1 -4.94707 -8.05663 1.19006
1 -4.89788 -7.09947 0.998848
1 -5.1051 -7.03558 0.0426382
1 -4.69438 -7.65108 -0.592524
1 -4.20686 -7.84791 0.242649
1 -3.58069 -8.46187 4.54633
1 -3.66802 -8.75533 3.52769
1 -4.32419 -9.3551 3.33844
1 -5.03509 -8.75226 3.43349
1 -5.30708 -9.11473 4.35157
1 -6.05098 -9.11686 5.09137
1 -5.28629 -8.95302 5.69789
1 -4.58539 -8.77996 5.06745
1 -4.04984 -8.39686 5.82159
1 -4.14468 -7.487 6.10241
1 -4.40798 -7.20412 -5.34437
1 -3.70588 -6.64303 -5.53574
1 -3.87953 -5.70786 -5.34271
1 -3.60142 -6.22419 -4.58903
1 -4.52194 -6.44878 -4.56134
1 -5.1561 -6.52805 -3.7531
1 -5.67309 -6.94071 -3.04874
1 -6.13724 -6.14289 -3.52416
1 -6.02149 -5.29406 -3.08531
1 -6.24851 -5.57044 -2.19562
1 4.48115 7.14073 5.99784
1 5.00552 6.41893 5.71157
1 5.74739 6.96933 5.55881
1 6.53581 6.4185 5.95901
1 6.28838 5.53281 6.2826
1 5.73542 5.74879 5.55491
1 5.69146 4.80739 5.55269
1 5.36039 5.01485 6.43013
1 5.40523 4.56952 7.2671
1 5.26978 4.0544 8.07797
1 4.86806 5.63822 0.461544
1 4.61786 5.8261 1.41503
1 4.27893 5.19872 2.12068
1 4.77389 4.36982 2.23331
1 5.23004 4.44767 3.06292
1 4.66127 4.67768 3.77726
1 4.76417 5.41944 3.08848
1 3.9088 5.62247 3.58575
1 3.62166 6.11348 2.78699
1 2.88993 5.94417 3.34769
1 -2.83079 -6.07665 6.77203
1 -2.79477 -6.95498 6.3934
1 -2.28414 -7.23364 7.14124
1 -2.25617 -8.12719 7.44224
1 -2.21677 -8.00109 6.45186
1 -1.92426 -7.30174 5.80028
1 -1.36426 -7.20084 5.02194
1 -0.470739 -6.94495 5.08295
1 -0.721711 -6.03276 4.66537
1 0.194723 -5.9748 4.70636
1 -8.8716 -5.57295 -8.9083
1 -8.51639 -4.76514 -9.07849
1 -7.58654 -4.45515 -9.16818
1 -7.18959 -4.16045 -10.0162
1 -7.63075 -4.83651 -10.5709
1 -8.38951 -5.22241 10.3656
1 -8.67727 -4.84921 -10.1458
1 -8.76653 -3.83864 -10.1446
1 -8.43492 -3.7459 -9.224
1 -9.18297 -3.70843 -8.65701
1 -6.51053 -10.3489 8.44153
1 -5.81368 -9.70965 8.07762
1 -6.19535 -9.99726 7.16563
1 -5.71616 10.4877 7.26117
1 -6.03907 10.0841 8.06646
1 -5.95894 9.14799 8.37101
1 -6.79103 8.75703 8.2585
1 -6.74926 7.76461 8.56019
1 -5.89685 8.04549 8.5767
1 -5.05673 8.30621 8.20632
1 -0.675458 -2.7337 10.5936
1 -0.923295 -3.06249 9.77665
1 -1.41741 -2.26375 9.9452
1 -1.30568 -1.30683 9.62791
1 -1.55228 -0.417777 9.94341
1 -0.864383 -0.647963 10.6019
1 -0.0384755 -1.09129 10.376
1 -0.019211 -0.276949 9.79098
1 -0.28685 0.691582 9.69968
1 -0.553495 0.504812 8.79254
1 5.10085 6.95342 6.8202
1 5.57336 6.12241 6.63859
1 5.10348 5.69354 7.34163
1 4.47073 5.67916 6.58293
1 3.66076 6.01413 6.05814
1 2.74437 5.67138 6.14043
1 2.97471 6.3767 6.81128
1 3.87207 6.34542 7.23658
1 3.39454 5.56424 7.61681
1 3.37208 5.24006 6.75496
1 -2.38488 5.47562 -4.58768
1 -1.70755 5.13207 -4.0353
1 -1.17815 4.40512 -4.15788
1 -1.84709 3.99267 -4.6908
1 -1.72102 4.87382 -5.06141
1 -0.772932 5.05444 -5.26503
1 0.167867 4.79482 -5.17475
1 0.272496 5.7655 -4.99438
1 0.516832 5.27209 -4.16842
1 -0.168435 4.58634 -4.14512
1 -3.2004 3.84061 -9.80895
1 -3.1876 3.061 -9.27066
1 -3.686 2.40576 -9.86016
1 -4.58249 2.63033 -10.2358
1 -5.49743 2.22567 -10.317
1 -4.85497 1.70468 10.5942
1 -5.00544 2.21266 9.76663
1 -5.92018 2.183 10.0157
1 -6.43658 2.64406 -10.597
1 -6.58035 1.66942 -10.6443
1 9.33334 4.29528 -2.86514
1 8.91725 3.55437 -3.32402
1 9.25763 3.09195 -2.5556
1 9.59749 2.86816 -3.4883
1 9.35764 2.13185 -4.17299
1 8.69019 2.49917 -3.60224
1 8.11206 2.90555 -2.95188
1 7.32337 3.13279 -3.42587
1 7.30081 3.80811 -2.73843
1 7.82679 4.16318 -3.55129
1 5.66597 9.62442 3.43767
1 6.16897 8.89062 3.88888
1 5.24085 8.8646 4.07048
1 4.80756 8.96913 3.24764
1 5.64037 8.62817 2.96559
1 6.18837 8.41363 2.18301
1 6.62136 7.727 2.64914
1 7.23164 8.306 3.22289
1 7.68086 7.55272 2.87664
1 8.13345 7.63838 2.06635
1 8.11254 -1.70363 2.86578
1 8.6476 -2.11543 2.23515
1 8.91656 -2.10341 1.26009
1 8.27955 -2.01863 0.48257
1 8.4868 -1.5325 -0.363545
1 8.57804 -2.4876 -0.527696
1 8.95517 -3.38915 -0.354419
1 9.58242 -4.10372 -0.0302535
1 10.2101 -4.60866 -0.686317
1 10.4865 -3.88817 -1.27123
1 -8.66742 9.07739 -9.01605
1 -8.99313 10.0254 -9.23831
1 -9.62444 9.58421 -8.72351
1 -9.60849 8.97688 -8.00272
1 -10.424 8.5117 -8.02838
1 10.1843 7.91309 -8.20093
1 -10.5699 7.88757 -8.97256
1 10.0396 7.36379 -9.38829
1 -10.5236 7.00319 -9.7803
1 -10.4976 7.02182 10.5348
1 0.761459 2.65377 -8.2375
1 1.03747 3.49583 -7.8945
1 1.78687 3.95136 -7.37945
1 1.22183 3.36006 -6.87727
1 0.671203 2.68369 -7.2471
1 0.946741 2.03524 -6.56302
1 1.47004 1.8034 -5.80389
1 0.732471 1.17502 -6.13476
1 0.326727 1.04541 -7.00764
1 0.227351 0.675478 -7.94328
1 5.40602 -5.493 4.97656
1 5.85352 -4.70872 5.19053
1 5.15312 -4.13668 4.90563
1 5.8632 -4.08408 4.13437
1 6.61218 -3.73354 3.68088
1 6.92584 -3.37354 2.84877
1 6.64648 -4.17108 2.34028
1 6.30804 -5.00834 2.02527
1 5.55423 -5.43868 2.36465
1 6.25785 -5.63078 2.9852
1 -9.94813 0.0137853 -4.59487
1 -9.15401 0.50323 -4.75272
1 -8.45308 -0.112628 -4.95282
1 -7.79607 -0.518949 -4.37674
1 -8.0957 -1.12932 -3.69969
1 -7.14765 -1.11955 -3.88353
1 -6.37211 -1.30966 -4.44557
1 -7.22301 -1.36908 -5.07552
1 -8.15124 -1.23392 -4.91014
1 -8.98424 -1.01938 -4.41189
1 -3.16536 4.48654 9.23593
1 -2.38631 4.16793 9.73642
1 -2.76604 4.21376 10.6044
1 -2.51317 4.86021 -10.0903
1 -2.4738 5.79557 -9.77235
1 -2.73353 6.61958 -9.28883
1 -2.17509 7.22815 -8.60146
1 -2.97467 7.51685 -8.09411
1 -3.81786 7.43444 -7.6164
1 -4.39131 6.78721 -7.15797
1 10.2765 5.7838 -5.60804
1 10.4983 5.86851 -6.51602
1 -10.2118 6.5681 -6.52551
1 -10.6214 7.03633 -5.79832
1 -10.1563 6.38132 -5.31162
1 -9.94337 6.29686 -4.35598
1 10.6652 5.53242 -4.2727
1 10.2619 6.43496 -4.3166
1 9.44772 6.33492 -3.81933
1 8.99486 6.12119 -4.67745
1 -0.612444 -0.0881203 1.98897
1 -0.502831 0.871588 2.11504
1 0.0257643 1.74873 1.85721
1 -0.765615 1.89394 1.37099
1 -0.39661 2.78239 1.4575
1 -0.549611 2.7017 2.44628
1 -1.03019 2.33427 3.2781
1 -0.485384 1.61357 2.97606
1 0.328544 1.02349 3.00975
1 0.655365 1.86698 2.63623
1 3.45633 -9.52068 3.18138
1 4.06634 -10.3551 3.08926
1 4.36537 10.472 3.91354
1 4.00745 9.57312 4.0408
1 3.2064 10.0069 4.43038
1 2.40642 9.52752 4.17334
1 1.5822 9.52115 4.61351
1 1.43442 8.62592 4.38905
1 0.701337 8.82174 3.81881
1 1.23541 8.55371 3.05479
1 -10.1468 3.93006 -8.75124
1 -9.41838 4.53117 -8.99992
1 -10.1089 4.94115 -8.4875
1 -10.1812 5.05151 -9.48167
1 -10.6342 5.39413 -10.3455
1 -10.2227 5.49157 10.122
1 -10.5279 4.64212 10.2269
1 -9.60416 4.56414 10.584
1 -9.12757 4.1282 -10.0353
1 -9.91615 3.66558 -9.77126
1 4.31891 -8.42778 8.89434
1 4.74023 -9.18341 8.49993
1 4.23685 -9.62851 7.83945
1 4.32745 -8.64741 7.68953
1 3.53633 -8.17175 7.30979
1 3.10538 -7.45326 7.69459
1 2.53661 -7.70349 7.03923
1 2.10378 -7.57377 7.89063
1 1.6266 -8.09293 7.31299
1 1.03005 -7.63759 6.77963
1 9.85047 3.95707 -8.27229
1 10.2007 3.00563 -8.43479
1 -10.3398 3.29375 -7.95114
1 -10.488 2.67035 -7.21095
1 -9.97329 1.8497 -7.16534
1 -10.4492 0.993898 -7.03121
1 10.4031 1.63591 -6.539
1 9.56489 1.91984 -6.25031
1 9.77641 2.8313 -6.06362
1 10.6031 2.56259 -5.71563
1 -2.30607 -10.5538 4.1762
1 -3.07688 10.3668 4.59297
1 -3.21577 9.58269 3.95878
1 -4.06369 9.99141 4.2296
1 -4.99376 10.1353 4.28494
1 -5.12196 -10.3136 3.86602
1 -4.51412 -9.74957 4.32296
1 -3.74841 -10.0369 4.80813
1 -3.73402 -9.29434 5.41565
1 -2.77861 -9.3779 5.48335
1 7.38705 1.54838 8.94931
1 6.67534 2.19219 9.14977
1 5.83311 1.71032 9.12064
1 5.96431 1.02608 9.87908
1 6.72797 1.51882 9.9474
1 6.65969 2.44483 10.0931
1 6.96378 1.91592 -10.4243
1 6.82172 2.16456 -9.49706
1 7.25561 2.93012 -9.8857
1 7.74454 3.70331 -9.67043
1 6.65549 -8.24206 -3.77594
1 7.5142 -8.64938 -3.71491
1 6.82437 -9.19957 -4.11351
1 5.96199 -9.58085 -4.16755
1 5.75699 -8.66998 -4.38459
1 5.51104 -8.02591 -4.96504
1 5.59715 -7.36863 -4.21438
1 4.76422 -7.14554 -3.78382
1 4.75425 -6.42379 -4.47845
1 4.59881 -5.65272 -5.18114
1 6.13286 9.13609 -8.14203
1 5.23151 9.00407 -8.53696
1 5.78534 9.54901 -9.01852
1 5.0803 10.1319 -9.24929
1 4.22938 9.83855 -8.97816
1 4.0179 10.6346 -9.31304
1 3.35252 -10.5482 -8.6216
1 3.76998 10.4074 -7.81698
1 3.25072 9.66497 -7.73134
1 3.93292 9.09025 -8.03724
1 5.05448 5.99849 -8.47352
1 5.70805 5.68583 -7.85542
1 6.04309 6.43521 -8.23208
1 6.86934 6.71992 -7.96659
1 7.10869 6.89242 -7.09871
1 7.89034 6.33393 -6.9199
1 7.44259 6.7017 -6.1487
1 7.54048 7.4091 -5.52457
1 7.3023 8.18882 -5.00981
1 7.09368 8.48987 -5.86663
1 2.07678 -8.12509 9.80303
1 3.02755 -7.8419 9.93727
1 3.81836 -7.30342 9.55506
1 3.15571 -7.61622 8.95387
1 3.33432 -8.377 8.30265
1 2.88534 -9.23473 8.30058
1 2.49539 -8.54034 7.66762
1 2.67748 -8.86183 6.80566
1 2.45492 -9.32282 6.03435
1 2.88889 -8.73653 5.44674
1 1.31724 3.05253 5.6009
1 1.22087 3.85766 6.13931
1 0.83113 4.76336 6.18437
1 0.376788 4.84272 7.05894
1 -0.061664 3.96186 6.8567
1 0.665965 3.35516 6.77227
1 -0.250539 2.83383 6.628
1 -0.0911208 3.39742 5.82774
1 0.300133 4.13335 5.34941
1 0.799986 3.62618 4.61602
1 -4.11185 6.47664 8.47818
1 -4.20381 6.22935 9.37946
1 -3.27982 6.01402 9.33884
1 -2.60986 6.59481 8.8797
1 -2.0065 5.94711 9.16473
1 -2.15289 5.22619 9.86324
1 -2.69384 5.74454 10.4761
1 -3.41573 5.16115 -10.4474
1 -3.45701 4.86955 -9.49418
1 -4.29577 4.49847 -9.76049
1 -10.5393 -3.41467 0.548287
1 -9.91316 -2.72756 0.93064
1 -9.51882 -1.88503 1.02508
1 -8.85409 -2.37682 0.514831
1 -9.40332 -2.04019 -0.125372
1 -10.2737 -1.9027 -0.531113
1 -10.61 -1.25089 -1.14651
1 10.1422 -1.28017 -1.96059
1 9.73621 -2.08844 -2.05737
1 9.50298 -2.8078 -2.65993
1 3.43216 -6.85624 -2.92272
1 3.58251 -5.95585 -3.26292
1 3.57161 -6.11025 -4.20035
1 3.75606 -7.03591 -4.02171
1 3.67151 -7.56507 -4.93284
1 3.90854 -8.11421 -4.11749
1 3.72278 -7.92237 -3.18347
1 4.00579 -7.6138 -2.37749
1 4.96143 -7.78387 -2.21156
1 4.46903 -8.52663 -2.66297
1 10.2915 -10.178 -4.53097
1 10.3341 10.3437 -5.0679
1 -10.6535 10.2338 -5.92343
1 10.382 10.1702 -6.77056
1 -10.2203 9.53174 -6.63871
1 -9.94531 10.4545 -6.88755
1 -9.21078 9.81814 -7.08783
1 -9.3709 10.3264 -7.87967
1 -9.12713 -10.31 -7.24255
1 -8.62842 -9.61227 -6.73617
1 3.50061 -4.45096 2.02906
1 2.57125 -4.15049 1.71582
1 2.31004 -4.16846 0.682264
1 2.43813 -3.4748 0.0720426
1 2.95603 -3.73513 -0.65368
1 3.72816 -3.20453 -0.921771
1 3.51371 -2.45355 -0.299985
1 3.66225 -1.76189 0.397172
1 2.84198 -2.24647 0.508801
1 3.48813 -2.70766 1.02276
1 -2.69442 -2.65001 -9.32544
1 -2.88496 -3.38412 -8.66978
1 -3.79603 -3.10731 -8.4587
1 -3.76376 -2.89116 -9.46415
1 -4.17126 -3.73512 -9.43906
1 -3.25334 -3.67279 -9.68911
1 -3.0444 -3.78471 -10.6496
1 -3.73843 -3.25071 -10.5766
1 -3.07169 -2.59647 -10.3796
1 -4.01326 -2.29604 -10.2899
1 -8.64371 2.86177 9.94182
1 -8.70108 3.78047 10.1857
1 -8.45203 4.6245 9.88818
1 -7.75612 4.02957 9.66651
1 -7.6731 3.31074 10.2245
1 -8.18689 3.34892 -10.2843
1 -8.83696 2.97943 -9.64271
1 -8.04031 2.74974 -9.25683
1 -8.59086 2.79288 -8.45839
1 -9.33782 3.24607 -8.86623
1 -4.43131 6.55604 -2.54348
1 -4.9873 7.19885 -3.01809
1 -4.90518 8.08333 -3.43848
1 -5.27295 8.7636 -4.02977
1 -6.06617 8.22195 -4.0604
1 -6.50373 8.05301 -4.87742
1 -6.50191 7.61075 -5.7281
1 -6.6972 7.09976 -6.48883
1 -7.32356 6.41552 -6.42882
1 -6.8686 5.6947 -6.831
1 -9.09181 8.00472 -4.27167
1 -8.54401 8.73992 -4.39866
1 -8.19499 9.22406 -3.69565
1 -9.01271 8.65225 -3.43388
1 -9.39473 7.87199 -2.98339
1 -9.17647 7.25967 -3.66208
1 -8.42311 7.2047 -4.29079
1 -8.29547 7.72868 -5.05651
1 -7.61285 8.03578 -4.47863
1 -7.14215 8.80074 -4.28784
1 8.62673 9.69304 7.23823
1 9.22938 10.2501 6.72899
1 8.82881 9.60606 6.13935
1 9.4425 9.08288 6.6148
1 9.87068 8.21913 6.82031
1 9.50511 8.65194 7.58152
1 8.7608 8.03797 7.7682
1 8.20263 8.69066 7.49723
1 7.5751 8.56099 8.14417
1 7.7171 9.49036 8.00312
1 -0.445896 -10.1347 7.43086
1 -0.674269 -9.21917 7.50197
1 -1.0037 -9.11419 6.58094
1 -0.542924 -9.68164 5.99257
1 0.142575 -10.1348 6.51323
1 -0.563754 10.5565 6.55545
1 -1.5183 10.4302 6.31961
1 -1.78534 9.90906 5.59046
1 -2.42869 9.40759 5.02746
1 -1.96322 9.75721 4.21187
1 -0.563624 4.78179 -2.28408
1 -0.160103 3.87726 -2.23796
1 0.396143 3.15749 -2.80789
1 0.193183 2.74487 -3.69457
1 0.0469562 3.64711 -3.78412
1 -0.671044 3.25896 -4.24102
1 0.135207 3.2681 -4.83992
1 -0.519449 3.94891 -5.11006
1 0.261111 3.87744 -5.70729
1 0.708086 2.98701 -5.77441
1 9.63499 -0.518045 -3.4956
1 8.69871 -0.516887 -3.31169
1 8.99754 0.386236 -3.30689
1 9.9297 0.356026 -3.03431
1 -10.5008 0.478001 -3.23353
1 10.5939 -0.155766 -3.9128
1 9.74786 0.201128 -4.16245
1 8.97688 0.656657 -4.50409
1 8.43687 1.40476 -4.21146
1 7.87278 1.15944 -3.4054
1 6.5084 -4.72187 -2.92797
1 5.78665 -4.56942 -2.18005
1 5.60057 -3.6496 -2.51487
1 6.19556 -3.08042 -1.97748
1 5.87203 -3.87221 -1.50632
1 6.54208 -4.50632 -1.1717
1 6.79115 -5.08763 -1.82637
1 6.94809 -4.14484 -2.04641
1 7.48932 -3.39308 -1.83446
1 6.76655 -3.39578 -1.16559
1 0.665991 9.7151 -4.55135
1 0.225976 9.2367 -5.27454
1 1.05272 9.65479 -5.53517
1 1.89616 9.69868 -5.06589
1 2.24035 10.0326 -4.16327
1 2.89677 9.62089 -4.74112
1 3.53736 10.2566 -4.90623
1 4.07208 -10.6356 -4.20179
1 3.97233 -10.1372 -3.3977
1 3.83912 -9.59502 -2.67552
1 -7.03945 -5.46044 8.0284
1 -7.01174 -6.15491 7.19908
1 -7.39143 -6.69772 6.45891
1 -8.29146 -6.73811 6.03125
1 -9.23822 -6.56413 6.34261
1 -8.65811 -5.74035 6.46513
1 -8.23096 -6.47987 6.98384
1 -8.01449 -6.97194 7.77082
1 -8.69327 -6.98725 8.43964
1 -8.52918 -7.95503 8.46545
1 -6.17452 3.43036 8.36837
1 -6.47764 4.30238 8.21298
1 -6.25051 4.47238 9.18696
1 -6.78512 4.36654 10.0028
1 -7.143 4.92989 9.33021
1 -7.48795 5.11979 8.3782
1 -8.41587 5.13321 8.09939
1 -8.65322 5.17572 9.03742
1 -7.85918 5.55792 9.3455
1 -7.55583 6.1255 10.0578
1 -2.36827 4.46774 -9.16514
1 -1.57055 4.83672 -9.44064
1 -1.20301 5.65292 -9.08903
1 -1.2599 6.5431 -8.73669
1 -1.89312 6.31032 -8.06513
1 -2.11328 5.80033 -8.79189
1 -1.5988 4.97195 -8.44519
1 -0.686797 4.72569 -8.49843
1 -0.438101 4.46588 -9.34672
1 0.0202491 3.75937 -9.82617
1 10.3984 -4.34129 -3.89538
1 9.54953 -4.53322 -3.43085
1 9.01897 -5.36923 -3.37137
1 8.69252 -5.85021 -2.65313
1 8.8871 -6.4866 -3.35597
1 9.61748 -6.55252 -2.82571
1 9.37967 -7.42378 -3.31564
1 8.76354 -7.63765 -2.64668
1 7.95787 -7.54157 -2.08914
1 8.0895 -8.40875 -1.7206
1 -10.6505 -7.53652 3.71732
1 10.4793 -7.23362 2.85245
1 10.0398 -6.54153 2.2629
1 10.6338 -6.89972 1.52851
1 -10.3534 -7.25708 0.710115
1 10.261 -7.84993 0.505059
1 10.4343 -8.47118 1.22524
1 -10.3105 -9.03238 0.724263
1 -9.82221 -8.7408 -0.128602
1 -9.59145 -9.32965 -0.901018
1 5.23 -7.77639 1.89568
1 6.00804 -8.08938 1.40968
1 5.48191 -8.91949 1.31765
1 5.4976 -9.67781 0.665311
1 4.73546 -9.94487 1.31155
1 5.42544 -10.4204 1.79134
1 5.75413 -9.90191 2.52996
1 6.52834 -9.41701 2.83631
1 6.29565 -8.48851 2.74153
1 6.85217 -8.75186 3.53456
1 -7.8799 -8.08894 -4.87292
1 -7.57091 -7.39299 -5.34071
1 -6.89047 -8.0059 -5.21568
1 -6.14793 -7.33865 -5.33242
1 -5.33977 -7.79677 -5.41923
1 -4.93207 -8.2947 -6.16266
1 -4.21507 -8.82804 -6.52574
1 -4.1461 -8.7428 -7.44816
1 -4.30887 -7.94858 -6.91222
1 -4.18616 -7.14276 -6.50791
1 9.86265 -1.36566 -2.93728
1 8.98079 -1.33787 -2.63642
1 8.55294 -0.653004 -2.00122
1 7.83887 -0.117424 -1.6518
1 7.02314 -0.496138 -1.56784
1 6.75876 0.310706 -1.11416
1 6.43681 1.13108 -1.37927
1 5.82113 1.77485 -1.00984
1 5.07826 2.29704 -0.662231
1 4.18868 1.9987 -0.426269
1 3.11721 -4.01146 4.92378
1 4.00985 -3.7041 4.88311
1 3.72897 -4.08212 4.01419
1 4.58212 -3.69398 3.85158
1 4.66828 -2.7468 4.1503
1 3.70977 -2.90892 4.14967
1 4.15953 -2.96374 3.28004
1 4.80997 -3.4051 2.57659
1 4.03046 -3.00844 2.02994
1 4.90402 -2.63846 1.76241
1 -8.92615 10.0209 -2.99199
1 -9.17898 10.4768 -3.79653
1 -8.88624 10.2688 -4.78815
1 -9.40447 9.5632 -4.40227
1 -9.62797 8.97554 -5.07451
1 -9.73654 8.1077 -5.35613
1 -10.5563 8.28086 -4.96162
1 10.5851 7.40099 -4.70968
1 9.82691 7.9668 -4.49344
1 9.52489 7.98568 -5.40421
1 2.61202 -4.43623 8.68191
1 2.50738 -3.49112 8.90628
1 2.04374 -3.63067 8.07526
1 1.63961 -3.51267 7.14453
1 1.14794 -3.24799 6.28363
1 0.583262 -2.9375 5.61746
1 1.37831 -2.3486 5.75308
1 1.77938 -1.7503 5.01916
1 1.91042 -0.808168 5.16395
1 1.83761 -1.38334 5.93341
1 8.89365 -2.82551 8.50851
1 8.41491 -2.18085 8.97799
1 7.55761 -2.21561 9.40821
1 6.56817 -1.83479 9.46955
1 6.77177 -1.65235 8.56405
1 6.9635 -2.56981 8.73946
1 6.18326 -3.04742 8.6382
1 5.88222 -2.11008 8.70295
1 4.88062 -2.32735 8.71466
1 5.3501 -3.01854 8.20219
1 -8.24073 3.93114 -5.8802
1 -8.85918 4.66086 -5.70072
1 -8.36523 5.45489 -5.66759
1 -8.18039 5.85883 -6.48827
1 -8.52765 6.37708 -7.22302
1 -8.35608 6.89654 -6.34229
1 -8.1617 7.2975 -7.16336
1 -8.973 7.32536 -7.7024
1 -9.51315 8.05823 -7.33526
1 -10.2421 8.48448 -6.78118
1 5.9458 -2.94966 -4.42415
1 5.41209 -3.39694 -5.11155
1 4.39307 -3.62257 -4.99082
1 4.33691 -4.55559 -4.96723
1 3.63213 -5.0387 -4.55817
1 3.44628 -5.48855 -5.34846
1 2.65272 -5.55757 -4.73337
1 2.60728 -6.31971 -5.24887
1 2.10616 -7.04875 -4.8679
1 1.12433 -7.00926 -4.85838
1 -1.25089 -6.5887 6.56527
1 -1.85519 -6.13644 7.22419
1 -1.48133 -5.36639 6.83742
1 -0.604144 -5.54037 6.52851
1 -0.109482 -6.33881 6.77578
1 -0.224192 -7.03762 7.3958
1 0.311756 -7.26846 8.15323
1 0.9053 -8.00011 8.04176
1 0.444035 -7.86601 8.95575
1 -0.1887 -8.52396 9.21031
1 4.33422 -1.56615 9.71804
1 3.85251 -1.45476 8.90548
1 4.70078 -1.30549 8.53855
1 5.39206 -0.748141 8.23095
1 4.58187 -0.220677 8.4086
1 3.78816 -0.331552 8.95475
1 3.5899 0.302729 8.3051
1 3.80146 1.16595 8.743
1 3.69137 1.29895 7.81342
1 4.4991 1.73577 7.51219
1 6.56706 -9.02453 0.381194
1 7.28091 -8.95446 -0.207077
1 7.07654 -8.0996 -0.52437
1 6.19199 -7.91448 -0.698896
1 6.28045 -7.08247 -0.434152
1 5.68837 -7.41671 0.242775
1 5.00682 -6.9423 -0.29061
1 5.27628 -7.11871 -1.19415
1 4.46422 -7.58218 -1.22897
1 3.75139 -8.28662 -1.53723
1 -6.87309 10.0768 -10.0412
1 -6.7423 10.5864 10.4189
1 -6.89489 -10.4454 9.46391
1 -7.77199 -10.2915 9.84255
1 -8.05684 -10.3926 -10.5596
1 -7.85055 -9.44951 -10.2589
1 -7.36258 -9.89813 -9.62213
1 -6.48523 -10.093 -10.0418
1 -5.66177 -9.68986 -10.3207
1 -5.41911 -8.80384 -10.1285
1 3.37058 -2.94053 5.27001
1 3.94763 -2.21023 4.89283
1 3.94151 -1.2552 5.09527
1 4.69649 -1.19892 4.53583
1 5.41233 -0.783871 4.97881
1 6.04879 -0.854929 4.22377
1 6.2269 -1.74849 4.01088
1 5.31475 -1.88504 3.94001
1 4.83435 -1.17951 3.52576
1 4.33102 -1.95827 3.58758
1 -6.67765 3.4408 5.96985
1 -6.90137 3.71627 5.05396
1 -7.3656 4.21853 4.39966
1 -8.30091 4.11074 4.57796
1 -8.51698 5.08605 4.62349
1 -9.29101 4.51896 4.80925
1 -9.26517 3.94174 3.9668
1 -9.28966 4.85971 3.47352
1 -10.192 5.08973 3.33237
1 -10.4805 5.8174 4.02659
1 -6.94847 8.90528 -9.68313
1 -7.34062 8.16068 -10.2028
1 -8.27845 8.36423 -9.81593
1 -8.69239 7.51829 -10.0531
1 -8.32363 7.73303 10.48
1 -7.44723 7.39709 10.3792
1 -7.69048 7.13271 -10.0255
1 -6.8178 6.94908 -10.3208
1 -6.19349 6.50881 10.3376
1 -5.31193 6.09316 10.5634
1 4.66363 -8.89168 -8.8741
1 4.22919 -8.26159 -9.44855
1 4.90963 -7.7575 -8.95404
1 5.03708 -6.92173 -9.23558
1 5.87039 -6.62225 -9.49232
1 6.50275 -6.92496 -8.78162
1 5.91582 -6.87146 -8.07477
1 6.63329 -6.42508 -7.65038
1 6.94811 -5.92646 -8.40634
1 6.78955 -6.15185 -9.32611
1 -3.43167 9.29097 -9.66231
1 -3.31231 9.0545 -10.5292
1 -3.95145 9.7288 10.425
1 -3.79155 10.3899 -10.1847
1 -3.37178 -10.4743 10.4526
1 -3.65203 -9.54778 10.1083
1 -3.35273 -8.91939 9.48351
1 -2.65351 -8.29712 9.35371
1 -3.28237 -7.49223 9.20078
1 -3.88482 -7.29338 8.54792
1 -6.8476 -9.07846 -10.3388
1 -6.75602 -8.38988 10.3047
1 -6.98317 -9.22525 9.84038
1 -7.97756 -9.09348 10.1105
1 -7.90071 -8.31907 10.6233
1 -8.30417 -7.98296 9.8724
1 -9.01395 -8.4071 10.3226
1 -9.74025 -8.79949 9.90118
1 -10.251 -8.05086 9.89718
1 -10.5625 -8.68649 10.5058
1 9.35541 0.802682 -0.167716
1 9.63011 1.5878 -0.649609
1 9.10062 1.21893 -1.40712
1 9.79392 0.552755 -1.58023
1 10.3553 1.35589 -1.49882
1 10.2254 1.02415 -2.3898
1 -10.3793 1.57723 -2.81542
1 -10.4413 2.46354 -3.17779
1 -10.5379 2.75234 -4.09842
1 10.2977 3.52747 -4.06013
1 -9.45528 4.45415 9.25412
1 -9.8943 3.64874 9.58882
1 -9.61526 3.54346 10.5669
1 -10.4983 3.22429 10.3894
1 -9.91575 2.59328 10.0073
1 -9.98717 1.78294 9.59402
1 -10.1637 1.16148 8.93203
1 -9.26364 0.899105 8.64269
1 -9.08338 1.67475 8.18831
1 -9.73533 1.9443 7.64092
1 2.79269 8.73539 7.803
1 3.67374 8.54616 8.10933
1 3.64756 9.38684 8.55442
1 2.63496 9.30472 8.68939
1 1.74944 9.10642 9.02629
1 1.46794 10.0719 9.02008
1 2.09952 10.5299 9.57353
1 1.71673 -9.98499 9.91643
1 1.94849 -10.0768 -10.4861
1 2.80386 -10.223 10.3683
1 -7.52942 6.50708 -7.54645
1 -6.56647 6.80531 -7.60217
1 -6.53168 6.75309 -8.56569
1 -5.63011 6.63516 -8.10205
1 -5.5134 7.07469 -7.28235
1 -5.45805 7.56793 -6.47357
1 -5.62853 8.07834 -7.25931
1 -5.59495 7.86277 -8.19049
1 -5.2525 7.80305 -9.14036
1 -4.90875 7.19085 -9.77057
1 -4.22408 7.31115 8.1069
1 -4.36191 7.9919 7.469
1 -3.76827 8.52787 7.97872
1 -4.09849 8.16808 8.78232
1 -4.05121 7.57733 9.5105
1 -4.51722 7.00391 10.0954
1 -5.4785 7.16503 9.93654
1 -5.28468 7.53917 -10.5624
1 -4.67732 8.23919 -10.0835
1 -3.85245 8.20921 -9.60749
1 1.08099 1.6952 -8.79161
1 0.309994 1.69433 -8.22595
1 -0.369661 1.36366 -7.62251
1 -0.831859 2.09941 -7.38011
1 -1.06864 2.42707 -6.54276
1 -1.73881 2.52774 -5.82167
1 -1.07525 2.20599 -5.23589
1 -0.455733 2.86433 -5.63849
1 -0.0816455 2.61431 -6.44546
1 -0.208463 1.65636 -6.44087
1 -0.58337 0.011334 5.18891
1 -0.585164 -0.873445 5.3412
1 -0.996955 -0.523927 6.15541
1 -1.91064 -0.351687 5.93611
1 -1.80162 -1.31016 5.84751
1 -2.13381 -0.920958 5.01639
1 -2.0363 -1.83353 4.72305
1 -2.58594 -2.50549 4.27775
1 -1.90008 -2.93009 4.81465
1 -2.21895 -3.66839 4.34615
1 -6.5106 -7.91975 -6.24331
1 -5.79747 -8.2776 -6.75366
1 -5.26021 -7.42552 -6.81952
1 -5.44251 -6.87237 -6.03445
1 -4.79791 -6.30172 -5.65157
1 -5.25945 -5.46517 -5.68228
1 -6.01487 -5.9378 -5.44762
1 -5.61718 -6.50754 -4.90767
1 -6.33259 -6.0133 -4.46324
1 -5.75979 -5.2783 -4.56184
1 6.92981 -10.1497 -0.362497
1 6.76574 10.3022 -0.0189849
1 6.08801 9.71806 -0.377958
1 6.45472 9.17433 -1.16043
1 5.46471 9.35143 -1.18617
1 5.64136 8.60342 -0.563095
1 5.63509 7.9316 -1.21538
1 4.95598 7.59257 -0.560142
1 5.87963 7.34105 -0.383193
1 6.5039 6.80741 -0.897346
1 -9.16787 2.38165 6.81952
1 -8.96895 1.5786 6.28896
1 -8.74092 0.795369 6.73779
1 -8.28571 0.644256 5.9361
1 -8.46228 -0.226149 5.52702
1 -7.66259 -0.474578 5.05894
1 -7.20799 0.207516 5.53524
1 -6.21436 0.332012 5.57014
1 -5.74555 -0.27415 4.85774
1 -4.78642 -0.0876411 4.78215
1 10.2262 -7.17166 -0.934181
1 9.77213 -7.0891 -0.106223
1 9.61934 -6.38863 0.493943
1 10.3633 -6.01199 -0.101877
1 10.3141 -6.18626 -1.0363
1 -10.4344 -5.39031 -0.862743
1 10.2928 -5.28811 -1.61151
1 9.67611 -5.3539 -2.38354
1 9.46685 -6.08815 -1.80328
1 8.84971 -6.83772 -1.87158
1 2.88168 8.11427 5.64876
1 3.09163 8.99829 5.91461
1 2.75532 9.6826 5.35985
1 3.61204 9.92757 5.65472
1 4.00394 10.0996 6.4465
1 4.99439 9.99553 6.75522
1 4.75397 -10.417 7.14259
1 5.17445 -9.59562 7.38081
1 5.84262 -8.84173 7.32804
1 5.27148 -8.07091 7.29412
1 3.22261 -1.19389 7.19565
1 3.97644 -0.948409 7.75814
1 3.17463 -0.938564 8.26701
1 2.45159 -0.520291 8.64153
1 1.53388 -0.770939 8.56849
1 1.56088 -1.39243 9.25817
1 1.21055 -1.45159 10.1446
1 2.22626 -1.6131 10.2546
1 2.01114 -1.39707 -10.2039
1 1.79025 -0.691418 10.6001
1 10.5331 4.49126 -2.95909
1 10.3472 5.43817 -2.94837
1 9.57381 5.63719 -2.48474
1 8.80284 5.25696 -2.96748
1 8.61325 4.85097 -3.83825
1 8.30392 4.48174 -4.60498
1 8.64406 4.61533 -5.52206
1 9.39617 5.27958 -5.57994
1 9.95416 5.00153 -4.89947
1 9.68655 5.06399 -3.95246
1 -5.86518 4.66421 0.898697
1 -5.37509 5.42667 1.00438
1 -6.05718 5.68032 1.56349
1 -6.7911 6.11102 1.14488
1 -6.43997 5.44936 0.531726
1 -6.93159 4.69054 0.23289
1 -7.35914 5.06028 0.998117
1 -8.01285 5.43306 0.350074
1 -7.32726 5.79818 -0.125256
1 -6.73971 6.21524 -0.643265
1 -3.59499 1.16928 -7.36727
1 -4.28459 0.647033 -7.00147
1 -4.29055 0.751136 -6.02884
1 -5.03997 1.12881 -6.5617
1 -5.37088 0.676331 -7.39848
1 -6.19654 1.04583 -7.60379
1 -6.30024 1.56899 -8.42695
1 -5.36258 1.39171 -8.43666
1 -5.34606 0.608759 -9.10203
1 -4.43386 0.991413 -9.09768
1 8.70989 4.94064 10.654
1 9.63772 4.72791 -10.5935
1 9.52226 5.49558 -9.96862
1 9.88822 6.31159 -9.53782
1 10.48 5.64774 -9.26545
1 -10.0179 6.03516 -9.56391
1 -9.58626 6.66457 -10.1548
1 -9.42355 6.02898 10.4153
1 -8.61209 6.06674 9.90379
1 -8.25739 6.59356 10.6213
1 8.2291 3.14319 -6.50984
1 8.55351 2.17559 -6.34993
1 7.6321 2.19508 -6.626
1 6.61723 2.27091 -6.51622
1 6.40579 3.11103 -6.75613
1 7.01241 2.73467 -7.51421
1 7.04102 3.61254 -7.77235
1 8.05387 3.55985 -7.70637
1 8.23346 4.54515 -7.74108
1 9.06946 4.39011 -7.28329
1 -2.33616 4.50933 -1.10916
1 -1.88707 3.65829 -1.40468
1 -1.65631 3.99806 -2.19662
1 -1.59323 3.01901 -2.10234
1 -0.904807 3.20193 -1.40433
1 -0.026027 3.56607 -1.19824
1 0.694233 3.29997 -0.596354
1 0.527161 4.13839 -0.163328
1 0.182664 3.4507 0.5142
1 -0.444762 3.83638 -0.119746
1 0.199873 -7.30082 2.19532
1 0.11703 -7.91003 2.95469
1 0.75259 -8.61559 2.92554
1 0.0981533 -9.23042 2.53605
1 -0.675716 -9.64319 2.81972
1 -0.863792 -8.95471 3.52739
1 -0.224089 -9.62729 3.73761
1 0.539932 -9.92153 4.20464
1 1.07768 -9.26571 4.62947
1 0.400635 -8.86072 4.13988
1 1.49615 -6.66158 7.39084
1 0.94822 -5.87503 7.25812
1 1.74182 -5.69938 7.66544
1 2.44286 -4.9426 7.7125
1 1.56529 -4.72671 7.39164
1 1.11075 -5.11655 6.61186
1 0.684617 -4.39472 7.08409
1 0.153391 -5.156 7.16531
1 -0.531347 -5.36514 7.83152
1 -1.40289 -5.27724 8.16612
1 -3.21969 -5.06901 -2.13671
1 -3.75597 -5.34263 -1.32498
1 -4.46367 -5.01007 -1.87697
1 -4.08793 -4.94504 -2.72363
1 -5.04993 -4.92398 -2.67772
1 -5.48681 -4.17213 -3.25824
1 -4.8796 -4.05296 -3.98463
1 -5.16592 -3.10243 -4.13322
1 -5.2181 -3.17269 -5.07996
1 -5.89675 -2.52784 -5.38632
1 3.48191 -2.24208 -6.91117
1 2.56735 -2.41645 -6.85625
1 1.7823 -1.845 -6.93218
1 2.4461 -1.81359 -7.73709
1 3.15505 -1.19967 -7.75066
1 3.46768 -1.3146 -8.64964
1 2.81024 -0.603677 -8.5838
1 3.41581 -0.590573 -9.35945
1 3.50337 -0.574776 -10.2919
1 3.80442 -1.44337 -10.606
1 -0.395957 9.16013 7.34642
1 -0.792326 8.34084 7.74645
1 -0.0644828 8.13971 7.1236
1 0.260586 8.35366 7.99333
1 0.765239 9.10668 8.41152
1 0.325638 8.67636 9.17471
1 0.97576 8.7185 9.92024
1 0.315403 8.93466 10.6266
1 0.635711 9.41631 -9.96372
1 0.105092 8.70594 -9.52094
1 2.16181 -1.4039 -8.62603
1 1.72859 -0.803068 -9.20028
1 2.32692 -0.157845 -9.61218
1 2.19001 0.225132 -8.76213
1 2.62537 1.14224 -8.70717
1 3.31537 1.52043 -9.19165
1 3.65507 0.975765 -9.96433
1 4.04748 0.340932 -9.2837
1 3.7923 0.863995 -8.5365
1 4.48172 0.319986 -8.1706
1 -10.2281 0.487989 1.72197
1 10.4622 0.730131 1.05703
1 -10.211 0.551278 0.315307
1 10.4259 0.468827 -0.3212
1 -10.4647 -0.25013 -0.846758
1 -10.5493 -0.446655 0.0801736
1 10.4097 -0.494641 0.933958
1 10.0026 -0.559669 1.81196
1 9.44101 0.169161 2.00712
1 9.61282 0.195006 1.09443
1 -3.97416 0.720026 -3.8064
1 -3.65658 0.279874 -3.04082
1 -3.05607 -0.030253 -2.38918
1 -2.86424 -0.539956 -3.18703
1 -3.67986 -0.829208 -2.81415
1 -4.56636 -0.766295 -2.50938
1 -5.03286 -0.311489 -1.78256
1 -5.22445 0.654963 -1.95397
1 -4.60322 0.576288 -2.70057
1 -4.91734 0.511337 -3.60276
1 -4.02176 6.91488 2.45041
1 -4.10002 6.48154 1.64393
1 -4.68369 7.08408 1.22164
1 -4.31969 7.68668 1.86487
1 -3.61078 8.27763 2.07406
1 -3.3628 8.88314 1.28628
1 -3.42365 9.54253 0.637426
1 -3.57252 10.459 0.270225
1 -4.51205 10.5 0.521249
1 -4.16196 9.97971 1.23164
1 -0.97938 9.59034 -0.105103