8000
Atoms. Timestep: 10000000
1 -6.87539 0.501697 -4.60853
1 -6.20925 1.01226 -4.20393
1 -6.60637 1.87661 -4.09761
1 -7.44567 1.70352 -4.52855
1 -7.32279 2.43766 -5.10303
1 -6.42721 2.85348 -5.18308
1 -6.27104 1.89914 -5.35644
1 -5.68336 1.17187 -5.1328
1 -6.36328 0.718339 -5.58044
1 -5.76806 1.31487 -6.22023
1 5.34747 -1.37809 9.6383
1 4.64609 -1.68157 10.3118
1 4.74682 -2.48688 9.70191
1 3.83417 -2.35825 9.42069
1 3.93204 -2.7864 8.54835
1 3.13378 -3.30707 8.28144
1 2.0845 -3.56839 8.11537
1 2.06935 -4.43973 7.7305
1 2.65381 -5.2504 7.39153
1 2.0571 -5.72335 7.94538
1 -3.24569 4.92689 6.3111
1 -3.24422 4.41181 5.47216
1 -4.18116 4.35379 5.44704
1 -3.80968 4.55197 4.536
1 -3.34818 4.03331 3.86739
1 -2.98246 3.66757 4.68287
1 -3.51876 2.7872 4.73468
1 -4.07566 3.50074 4.44757
1 -4.1455 3.12328 3.58844
1 -4.47996 4.02021 3.69881
1 -0.274868 7.16606 10.5013
1 -0.657048 8.09152 10.2833
1 -0.938213 8.26483 9.37781
1 -1.03682 9.12131 9.86179
1 -1.8506 9.00476 10.3745
1 -2.62065 9.58735 10.4595
1 -2.15996 10.3093 10.0925
1 -2.64395 -10.5258 -10.6098
1 -2.37994 10.6036 -9.71615
1 -3.25908 10.5229 -9.19909
1 -7.78212 -8.97407 -2.90116
1 -7.07049 -8.61707 -2.30909
1 -6.49468 -8.39886 -3.04734
1 -6.47116 -7.47799 -2.71805
1 -5.81149 -7.04801 -3.19598
1 -4.95665 -7.45847 -3.11862
1 -5.51736 -7.57209 -2.26685
1 -5.91595 -8.37484 -2.19955
1 -5.61848 -9.0837 -2.81869
1 -5.68379 -9.66213 -3.56918
1 -3.50451 -8.16825 1.65223
1 -3.63732 -7.52167 2.35857
1 -3.89932 -7.75673 3.30959
1 -4.56934 -8.39194 3.53701
1 -5.13996 -7.95466 2.92803
1 -5.42544 -7.33025 3.58003
1 -5.04369 -7.30979 4.43783
1 -4.42102 -6.90234 3.83318
1 -4.11189 -7.37022 4.68123
1 -4.11027 -7.34088 5.64083
1 -8.93415 -10.1169 3.27749
1 -9.65961 -10.6512 3.62989
1 -10.1144 9.91052 3.29552
1 -10.2061 10.5419 2.51552
1 10.3176 10.06 2.5251
1 -10.541 9.23808 2.56193
1 9.99912 8.73358 2.57073
1 9.95712 9.41464 1.86418
1 9.02424 9.30678 1.7767
1 9.31088 9.88628 1.03527
1 10.1259 -3.07657 -6.85541
1 9.94553 -3.84286 -7.4191
1 -10.546 -4.23039 -7.34811
1 -9.70724 -3.84161 -7.40981
1 -9.80309 -4.33455 -6.59635
1 -10.6254 -3.97214 -6.22468
1 10.2706 -3.80096 -5.40646
1 9.85158 -3.53794 -4.55424
1 10.6153 -3.85106 -4.17377
1 10.3951 -3.29328 -3.41968
1 3.95911 5.61946 -0.632972
1 3.89235 6.09027 0.201256
1 3.00586 6.12651 0.605906
1 2.5585 6.71806 1.24029
1 2.08246 5.89251 1.0981
1 1.90866 5.33188 1.90924
1 2.26968 4.41619 1.56298
1 2.25794 3.56103 2.03738
1 1.58247 3.4664 2.68417
1 1.91763 3.14171 3.56624
1 7.24786 3.74981 0.61947
1 6.64487 3.02295 0.482533
1 7.13137 2.99064 -0.280067
1 6.81879 3.14922 -1.15961
1 7.32616 2.79569 -1.88358
1 7.84494 3.55803 -1.7879
1 7.20303 3.95876 -2.36677
1 6.59862 4.06802 -1.60361
1 5.79072 4.11175 -2.12182
1 5.74102 5.0857 -2.40814
1 -3.50384 -5.75839 8.7037
1 -3.38444 -5.24947 9.5193
1 -2.78839 -4.63576 9.86291
1 -3.74258 -4.27953 9.7057
1 -4.27702 -3.64114 10.3713
1 -4.92504 -3.82636 -10.3047
1 -5.24818 -3.32717 10.3013
1 -5.78502 -3.60301 9.52003
1 -6.60624 -4.09083 9.44588
1 -6.88137 -3.12551 9.37421
1 -7.77355 -2.23481 5.06216
1 -6.79245 -2.32497 5.29971
1 -6.14474 -1.7869 4.91073
1 -6.72584 -1.59975 4.2051
1 -7.62062 -1.35421 4.12571
1 -8.28739 -1.03963 4.76949
1 -8.7265 -1.02181 3.92148
1 -8.80123 -0.634911 3.01444
1 -8.35986 -0.369864 2.22241
1 -8.28178 -1.27659 2.04424
1 4.87844 -9.44578 -9.50104
1 4.00138 -9.42867 -9.26054
1 3.74879 -8.53852 -9.46113
1 3.19823 -8.69655 -8.72976
1 2.31825 -8.68475 -8.37299
1 2.99834 -8.81551 -7.66513
1 2.93946 -9.31873 -6.91586
1 2.81103 -9.00808 -6.02849
1 2.26109 -8.2201 -6.10805
1 2.29655 -8.26708 -5.21021
1 4.67696 1.64323 -7.53622
1 5.507 1.75374 -8.01056
1 5.03023 1.20296 -8.67403
1 4.53403 0.347511 -8.53783
1 4.18845 0.532356 -7.64495
1 4.0041 0.138943 -6.74642
1 3.18522 0.292126 -7.21904
1 2.27948 -0.116569 -7.1468
1 1.63766 0.646263 -7.21972
1 1.53248 0.623597 -8.16074
1 1.60718 -8.24064 -2.88281
1 1.57376 -9.09262 -3.35613
1 0.760051 -8.95404 -2.90125
1 0.416955 -8.10025 -2.69586
1 0.00488606 -7.91862 -1.82422
1 0.393288 -8.72176 -1.68156
1 -0.0626881 -9.3447 -1.1186
1 -0.513667 -10.0038 -0.594149
1 0.334893 -10.4434 -0.654917
1 0.677231 10.1788 -1.12618
1 -4.20622 -9.49564 -0.291021
1 -4.74398 -9.31718 -1.06096
1 -5.61713 -9.03239 -1.33707
1 -5.81867 -9.99261 -1.11497
1 -5.24146 -10.0027 -1.85209
1 -5.09879 10.4744 -2.14984
1 -5.52259 10.3564 -1.29269
1 -4.6058 10.6599 -1.21103
1 -3.96191 -10.0255 -1.14156
1 -4.13512 -10.0324 -2.1196
1 9.63049 -8.60582 -4.21701
1 9.58491 -8.40186 -3.28861
1 10.0108 -8.05849 -2.49182
1 10.1612 -7.07356 -2.60571
1 -10.4606 -6.81022 -3.20149
1 -10.4563 -7.75106 -2.88138
1 -9.79362 -7.86802 -3.60696
1 -9.56117 -7.27691 -4.3315
1 -10.3404 -6.7801 -4.55947
1 -10.5322 -5.90029 -4.35427
1 3.58463 6.65034 -2.13638
1 4.53168 6.87601 -2.19805
1 3.93138 7.45838 -2.77816
1 2.98771 7.38212 -2.85571
1 3.34196 7.3501 -3.7896
1 3.24021 8.28433 -3.50214
1 3.84173 8.67993 -2.92016
1 4.13811 8.2297 -2.07426
1 3.86586 7.51866 -1.59991
1 2.94939 7.21657 -1.36296
1 -0.625069 4.65544 3.39756
1 -1.40664 4.48345 2.81911
1 -1.07418 4.00005 1.99863
1 -0.471447 3.8522 2.68758
1 -0.116952 3.21765 3.24996
1 0.757707 2.886 3.41938
1 0.769308 3.88912 3.34416
1 0.0266008 4.05752 3.92938
1 -0.530441 3.96727 4.74442
1 -1.26977 3.98738 5.30849
1 0.673807 -4.91154 -0.112801
1 1.47674 -5.00098 0.418546
1 0.855241 -4.92893 1.18693
1 0.206429 -5.18442 1.8713
1 -0.644816 -5.45734 2.18474
1 -0.496301 -5.4879 1.21501
1 -1.0719 -6.23605 1.52499
1 -1.53356 -6.64368 2.27183
1 -2.21161 -7.33057 2.60355
1 -1.94474 -7.94502 3.36151
1 -4.61203 2.64236 -4.81464
1 -5.53073 2.44001 -4.68539
1 -5.38447 3.26293 -4.29031
1 -4.82561 3.9795 -4.69608
1 -4.32462 3.49163 -5.41664
1 -4.84217 3.28318 -6.20865
1 -4.74634 3.83193 -6.937
1 -4.03903 4.0757 -7.56384
1 -3.68649 4.91799 -7.81719
1 -3.64659 5.71367 -8.35535
1 8.54134 -0.117823 2.98677
1 8.12797 -0.771922 2.33768
1 7.76578 -1.05275 3.22181
1 8.47955 -1.69964 3.31994
1 8.6954 -1.71126 2.41549
1 7.99737 -2.39939 2.4661
1 8.47837 -3.13388 2.12156
1 8.76854 -3.13158 1.17501
1 8.74375 -2.24021 1.52578
1 8.53835 -1.31708 1.36512
1 0.568934 -9.86376 3.72582
1 0.607504 -9.23828 4.45173
1 1.16935 -9.06417 5.19362
1 1.72673 -9.81001 5.52313
1 1.42133 -10.0263 4.59591
1 2.3027 -9.60705 4.72207
1 2.27039 -8.73441 5.17089
1 2.56146 -8.81693 6.10105
1 3.42925 -8.6612 5.67896
1 3.002 -7.77646 5.34902
1 9.20825 7.49822 -0.590077
1 9.84855 7.84137 0.0191441
1 9.20984 8.51666 -0.240562
1 10.0999 8.8149 -0.418969
1 -10.6386 8.83549 -1.23102
1 -10.4095 9.68531 -0.870838
1 -10.3845 10.454 -1.50859
1 10.0398 10.3817 -1.44932
1 9.45802 9.79728 -1.00398
1 9.9614 9.42548 -1.75768
1 5.12182 0.941017 0.199644
1 5.56495 1.53597 -0.447673
1 4.63767 1.36539 -0.677217
1 4.40128 2.11099 -0.0398136
1 3.91357 2.82712 -0.57768
1 3.25227 2.78302 -1.23874
1 3.4246 3.74173 -1.21098
1 4.30039 3.8125 -0.720349
1 4.99993 4.03951 -1.20994
1 5.71924 4.61917 -1.24619
1 8.82461 -1.77947 -0.148342
1 9.09704 -2.53405 0.462031
1 8.9079 -2.85575 -0.405513
1 9.02893 -3.65509 0.134038
1 9.84324 -3.73176 -0.391927
1 9.907 -3.15482 -1.15499
1 9.06922 -3.12447 -1.66897
1 9.28428 -2.58426 -2.48865
1 10.0921 -2.36455 -3.00205
1 9.66191 -1.62699 -3.43422
1 5.63925 10.5738 -5.78896
1 6.04623 -10.0123 -5.43557
1 6.25764 -9.33201 -6.12911
1 5.77062 -8.93885 -6.8289
1 5.28788 -8.08664 -6.88713
1 4.88766 -7.85931 -6.0929
1 4.18612 -7.57395 -6.67945
1 3.63237 -8.38815 -6.98271
1 3.97491 -8.64144 -6.11082
1 3.47512 -7.9471 -5.73889
1 4.5609 -4.9841 -2.35066
1 4.46318 -5.46335 -1.55698
1 5.4998 -5.56588 -1.32087
1 6.45666 -5.56102 -1.57032
1 6.51188 -4.91224 -2.20222
1 5.79407 -5.5695 -2.44754
1 6.49275 -5.40793 -3.08696
1 6.96856 -6.28195 -3.14463
1 6.67218 -7.12316 -3.48659
1 7.2435 -7.3113 -4.22627
1 3.03997 -2.42406 -7.87959
1 3.34072 -1.57482 -7.6722
1 2.97474 -0.862165 -7.25381
1 2.75913 -0.766712 -8.20976
1 3.51964 -0.148155 -8.33187
1 3.98819 -0.618808 -7.66297
1 4.92679 -0.475186 -7.8656
1 5.83453 -0.417253 -7.5417
1 6.72874 -0.0753752 -7.39608
1 6.76075 0.905792 -7.37747
1 -9.10637 -2.06396 2.35957
1 -10.006 -2.13025 2.1036
1 -10.2795 -1.81411 1.2375
1 -10.442 -2.71616 0.988474
1 10.5703 -3.396 0.478666
1 9.87347 -2.83163 0.902108
1 9.98454 -2.66294 -0.0133005
1 10.5597 -2.00658 0.239139
1 10.6036 -2.11032 -0.721757
1 9.83767 -1.58519 -0.42823
1 -1.74493 1.61451 -10.429
1 -2.65097 1.89764 -10.3054
1 -2.49181 1.76031 10.1434
1 -2.09695 2.58052 10.4558
1 -1.32339 2.25384 10.0326
1 -1.08331 3.10456 9.62256
1 -1.12315 3.72882 10.3582
1 -0.694112 4.22741 -10.3553
1 -0.211191 4.4474 -9.53529
1 -1.14348 4.68068 -9.455
1 -7.25169 -4.12631 -3.95779
1 -7.57763 -5.06989 -3.98672
1 -8.47333 -5.45828 -3.7162
1 -9.24495 -5.7824 -4.16352
1 -9.2536 -5.4814 -5.07003
1 -9.95522 -5.59839 -5.75659
1 10.5779 -5.69992 -5.30165
1 -10.4709 -4.95343 -4.88496
1 -10.1572 -4.02432 -5.05023
1 -9.41524 -4.53127 -4.56888
1 -8.3199 -7.81668 -3.62739
1 -8.3059 -8.77136 -3.95857
1 -7.67806 -9.55133 -4.09041
1 -6.7642 -9.30721 -4.41334
1 -7.20831 -9.77951 -5.16055
1 -8.12783 -9.48579 -5.19132
1 -7.64404 -8.67988 -4.95357
1 -7.8965 -7.77629 -4.6619
1 -7.15299 -7.90784 -4.06944
1 -7.34266 -7.86941 -3.036
1 -10.2566 0.39586 -1.6
1 -10.4248 1.33431 -1.30217
1 -10.2934 0.932567 -0.475742
1 -9.99061 0.855797 0.614162
1 -9.26505 1.47524 0.682646
1 -9.04824 2.08129 0.0247021
1 -9.29602 1.48187 -0.722965
1 -8.65189 0.812514 -0.91993
1 -7.88087 1.30329 -0.586854
1 -7.52585 0.804398 -1.30285
1 -8.8119 5.66627 -4.2653
1 -8.16306 6.27805 -3.94912
1 -8.84094 6.05134 -3.33247
1 -8.78765 6.95455 -2.98447
1 -9.36934 7.50041 -2.64001
1 -10.1853 7.75429 -3.13581
1 -10.3619 8.33416 -3.86556
1 -9.84679 9.02614 -3.57024
1 -9.60051 9.04047 -4.56181
1 -8.73631 8.69261 -4.44498
1 5.85267 2.00561 9.67804
1 5.98599 2.71749 10.2447
1 5.90558 3.56097 10.5192
1 5.63996 3.13048 -9.93688
1 6.60387 3.24183 -10.113
1 6.92346 4.02086 -10.5627
1 7.03623 4.49981 9.92016
1 7.44144 4.82716 9.12416
1 7.60731 3.82236 9.19852
1 7.45523 2.96474 8.89536
1 4.89335 8.34855 3.02099
1 3.91288 8.45528 3.10959
1 3.59727 7.67238 3.71237
1 4.0213 8.19879 4.34713
1 4.42866 9.10534 4.26962
1 4.36158 8.76259 5.19074
1 3.50444 9.01607 4.75964
1 3.55205 9.50394 3.96002
1 3.16639 8.6096 3.75222
1 2.52428 8.06234 3.3468
1 -2.13516 -1.16398 -7.11155
1 -1.56912 -1.84552 -6.75712
1 -1.15092 -1.29387 -6.0803
1 -0.913112 -0.379698 -6.35649
1 -0.858831 0.00749359 -5.52613
1 -0.0511388 0.26722 -4.94334
1 0.424041 0.891685 -4.50683
1 0.769076 1.47386 -3.86699
1 0.102752 1.73979 -3.28592
1 -0.6876 1.93082 -2.67321
1 -6.79046 -5.18792 5.94568
1 -6.73904 -4.21421 6.00281
1 -7.0507 -4.40136 5.12491
1 -7.57889 -4.72602 4.39463
1 -7.92665 -5.26491 5.12219
1 -8.87272 -5.44539 4.97563
1 -8.49824 -5.12356 4.09918
1 -7.7415 -5.66952 4.00067
1 -8.4668 -6.19267 3.6599
1 -9.30014 -6.22303 4.1967
1 3.67647 -3.84892 -3.18888
1 2.72715 -3.6968 -3.40753
1 2.55046 -3.78887 -4.48473
1 1.6156 -3.93984 -4.4995
1 0.820406 -4.46239 -4.57308
1 0.0625225 -3.92171 -4.21721
1 0.236734 -4.48762 -3.41691
1 0.0683864 -5.05125 -2.69131
1 -0.362246 -4.37373 -2.13149
1 -0.287264 -3.43767 -2.2348
1 6.46544 -5.81049 5.78345
1 5.62789 -5.44137 6.10044
1 4.91014 -5.78799 6.73554
1 4.62251 -6.25392 5.92832
1 3.90762 -5.56926 5.88976
1 3.78983 -5.4374 4.96671
1 2.99417 -5.77495 5.51379
1 2.65557 -5.06391 4.91135
1 3.35366 -4.63989 4.40081
1 3.3099 -4.3092 3.48078
1 -5.04745 10.017 -6.72891
1 -5.49338 9.44797 -6.1884
1 -6.30577 8.92563 -6.26216
1 -7.07362 8.52419 -5.89203
1 -7.76533 9.01298 -6.49429
1 -8.70049 8.67068 -6.57861
1 -9.36895 8.07113 -6.3222
1 -9.70765 7.1564 -6.56706
1 -8.96191 7.11568 -6.00645
1 -8.1552 7.42698 -5.68651
1 -6.9057 -3.07774 0.779196
1 -6.1136 -3.51681 1.0967
1 -6.3004 -3.73116 2.01488
1 -5.97392 -4.35484 2.65623
1 -6.74982 -4.84503 2.96371
1 -7.60735 -4.85919 3.35828
1 -7.42097 -4.35778 2.46106
1 -7.44045 -4.18413 1.50607
1 -7.7099 -4.88512 0.902733
1 -7.5739 -4.14717 0.246886
1 -5.09574 -3.30678 6.73869
1 -5.78079 -3.47534 6.08773
1 -5.62557 -4.35957 6.44051
1 -5.96429 -4.60959 5.57708
1 -5.45831 -5.45765 5.56115
1 -6.20792 -6.01488 5.61426
1 -6.85882 -6.16298 6.32137
1 -7.49132 -5.68976 6.81958
1 -7.59225 -4.73501 6.56384
1 -7.89873 -4.4164 5.73708
1 8.89049 1.46128 6.25092
1 8.14197 1.72739 5.71149
1 7.28644 1.81412 5.30979
1 6.73093 2.64505 4.97013
1 7.61096 3.02788 5.24332
1 8.1693 2.34346 4.91336
1 8.7514 2.82995 5.47792
1 9.69241 2.93137 5.24804
1 9.47459 2.00281 5.30308
1 9.81235 1.20123 5.064
1 1.0371 -8.42115 9.3024
1 1.79881 -7.70072 9.15155
1 1.86866 -8.43324 8.51031
1 1.75692 -7.57066 8.09911
1 2.02023 -7.11653 7.29119
1 2.20797 -6.34906 6.72424
1 3.11513 -6.17024 6.76942
1 2.85662 -6.50388 7.62308
1 3.59044 -6.94517 8.12411
1 3.09466 -6.29212 8.59887
1 -9.10602 -4.31159 -2.50065
1 -9.5613 -4.17903 -3.39213
1 -10.0221 -3.81444 -2.64948
1 -10.6128 -4.32575 -2.10052
1 10.0533 -3.62813 -2.09797
1 -10.4853 -3.35703 -1.68486
1 10.6076 -2.41878 -1.70503
1 10.5054 -1.52732 -2.02424
1 -10.1749 -1.45321 -1.33994
1 -10.0543 -0.58835 -0.91905
1 -1.72687 -8.77017 6.76921
1 -0.786141 -9.05452 6.95948
1 -0.998913 -9.61422 6.16366
1 -1.13686 -10.5269 6.45407
1 -1.79499 10.0961 6.5782
1 -2.12719 -10.4032 6.87884
1 -2.999 -10.0301 6.7138
1 -2.32409 -9.99801 5.96868
1 -2.76735 10.5 5.97288
1 -2.99435 -10.617 5.08054
1 -4.60332 -3.32676 -9.2884
1 -4.92461 -2.41549 -9.33121
1 -4.1038 -2.43252 -8.832
1 -4.74399 -1.82377 -8.40612
1 -4.77732 -0.896363 -8.64453
1 -4.64716 0.0648749 -8.38506
1 -4.01792 0.251847 -7.7246
1 -3.64982 0.46308 -8.55199
1 -2.97228 -0.229094 -8.75718
1 -3.49513 -0.515857 -9.44747
1 6.29988 -5.00558 7.67874
1 5.91891 -5.76054 7.11191
1 5.22129 -5.34409 7.65889
1 4.6353 -5.52981 8.46432
1 5.56185 -5.73485 8.59939
1 5.88446 -6.44953 9.21488
1 5.91203 -7.03235 9.99806
1 5.27087 -6.60865 10.6245
1 4.79446 -7.41244 10.295
1 5.07644 -7.54667 -10.1138
1 -5.75869 -4.44535 9.92556
1 -5.52277 -5.33965 10.1205
1 -5.13245 -5.18732 9.32499
1 -4.62586 -4.84953 10.1078
1 -3.86438 -4.92829 10.5974
1 -3.02371 -4.67332 -10.3405
1 -2.95983 -5.47214 10.4953
1 -2.15273 -5.41595 -10.1978
1 -1.84761 -5.55083 -9.33128
1 -2.12425 -5.27607 -8.39878
1 -5.90142 4.62579 4.2425
1 -6.07909 3.73567 4.34108
1 -6.92972 3.6937 4.69127
1 -7.00689 4.60455 4.80723
1 -6.90498 5.11014 3.96622
1 -7.83783 5.03691 4.24079
1 -8.53864 5.69705 3.88793
1 -9.22882 5.443 4.60749
1 -9.56416 5.11213 3.745
1 -8.76517 4.65494 3.91497
1 -3.70347 -0.684649 1.6996
1 -3.93902 -1.60699 1.9722
1 -4.90991 -1.7057 1.72037
1 -5.6704 -2.30244 1.76121
1 -6.0844 -1.8838 1.06392
1 -6.38088 -2.31707 0.328375
1 -5.66863 -1.74281 0.0910201
1 -6.41469 -1.75277 -0.510564
1 -7.12655 -1.16602 -0.230944
1 -7.37543 -0.589562 0.494212
1 -10.3529 0.384903 6.9715
1 -10.4817 1.18733 6.60736
1 10.6094 1.98089 7.07583
1 -10.5788 1.51657 7.91533
1 -10.4649 2.46326 8.13806
1 -9.9999 1.82113 8.71184
1 -9.11891 1.44691 8.82064
1 -8.74295 1.25669 8.00874
1 -8.39006 2.07184 7.53414
1 -8.85966 2.7995 7.11888
1 -3.85757 -7.43532 -2.92347
1 -3.41814 -6.588 -2.86961
1 -2.9109 -6.17181 -3.57471
1 -2.01327 -6.25009 -3.68588
1 -1.28904 -5.92783 -3.23911
1 -0.340211 -5.87431 -3.55137
1 -0.482015 -6.5047 -2.80088
1 0.284628 -6.13264 -2.53163
1 1.02223 -6.7764 -2.6164
1 1.82404 -6.7063 -3.07898
1 10.2286 -7.37941 1.95334
1 10.2709 -8.33088 1.78929
1 10.5904 -9.0119 2.38235
1 10.532 -8.11863 2.74643
1 9.68348 -8.54214 2.85873
1 9.21719 -8.02027 2.20161
1 9.03463 -7.12484 1.96979
1 8.90956 -7.54749 1.13648
1 9.44064 -8.3097 1.26664
1 10.1162 -7.89877 0.804516
1 -10.5568 2.78618 -10.1716
1 9.98774 3.071 -10.5558
1 10.2491 2.83942 9.8917
1 10.6483 3.21716 9.09117
1 -10.4677 3.6279 9.87491
1 -9.58888 3.0791 10.0906
1 -10.2058 2.30926 10.1882
1 -9.68509 2.31577 -10.3253
1 -9.4064 1.53326 -9.87894
1 -10.4884 1.43709 -9.80115
1 1.22642 5.87756 7.2487
1 2.13065 5.62663 7.24397
1 2.85757 6.0685 7.77402
1 3.04159 6.08432 8.69008
1 3.04052 7.06333 8.86552
1 3.41496 7.77723 9.41042
1 4.20736 7.67943 9.96568
1 4.63111 7.56446 -10.5616
1 5.1189 6.90865 10.3936
1 5.89209 7.2655 10.0411
1 -7.24528 -1.12335 -9.37214
1 -7.81921 -1.17278 -10.1316
1 -8.64592 -0.693975 -10.3573
1 -8.15316 -0.221753 -9.70771
1 -8.56154 0.637208 -9.53402
1 -8.33717 1.06025 -10.4292
1 -8.08959 0.20349 10.6108
1 -7.35939 0.795802 10.4669
1 -7.62488 0.534286 9.56504
1 -7.8832 0.445124 8.67141
1 -9.05061 -5.36617 -2.64694
1 -8.72118 -5.35105 -1.8002
1 -9.42528 -5.38778 -1.06941
1 -9.73241 -4.62085 -1.57623
1 -9.53934 -4.26616 -0.658131
1 -9.72636 -4.34173 0.214801
1 -9.30727 -5.18536 -0.11815
1 -9.54384 -6.11492 -0.186523
1 -9.99009 -6.30628 -1.0679
1 -10.5003 -6.28141 -0.241296
1 3.26838 -2.17587 -2.53924
1 2.72919 -2.15347 -3.31398
1 3.37523 -1.47687 -3.30674
1 3.60735 -0.580314 -3.31556
1 2.9765 0.166908 -3.26847
1 2.09115 -0.0187088 -3.66352
1 2.70649 0.533883 -4.20596
1 1.83949 0.967701 -4.39009
1 2.36967 1.2655 -5.12763
1 3.2137 1.09122 -5.66632
1 4.6838 2.54334 8.77909
1 4.20201 2.53072 9.64595
1 4.79958 2.20996 10.3461
1 4.49062 2.43455 -10.109
1 3.8557 1.72264 -9.73524
1 3.90401 1.45933 -8.77982
1 3.63636 2.34734 -8.94959
1 3.59158 3.02983 -8.23098
1 4.59023 2.74235 -8.43879
1 5.23709 2.52843 -9.07102
1 7.37029 8.14457 9.48018
1 7.66094 8.79915 10.1186
1 7.09487 8.97808 -10.4768
1 6.58446 9.72652 -10.5891
1 7.39012 10.2121 10.5115
1 7.71817 -10.656 -10.1237
1 7.92059 -9.72849 -10.0207
1 8.45309 -9.80313 10.5584
1 8.032 -10.5326 10.1558
1 7.28106 -9.93344 10.4593
1 3.86484 8.62388 -7.19057
1 3.11887 8.8873 -6.72423
1 2.34833 9.19334 -7.27313
1 1.90618 9.28225 -6.41577
1 2.68165 9.62571 -5.92396
1 2.38966 10.2263 -6.6117
1 3.31711 10.3216 -6.44317
1 3.34924 9.74414 -7.24018
1 3.91475 9.46501 -6.49101
1 4.17353 8.68673 -6.05297
1 2.70277 -10.2301 2.2464
1 3.43911 -9.88085 2.71942
1 3.88753 -9.32027 3.32981
1 4.27674 -10.0816 3.85228
1 3.69898 -10.3387 4.59054
1 3.1785 -9.85228 5.14482
1 3.18625 -8.99433 4.61336
1 2.61358 -8.30654 4.20161
1 1.69378 -8.22336 4.40731
1 1.19231 -7.48598 4.68416
1 8.64434 -2.05551 5.82121
1 8.91025 -1.68204 6.61201
1 9.3298 -0.900821 6.14438
1 9.37685 -1.24463 5.24644
1 9.12962 -1.25389 4.3491
1 9.71587 -0.504633 4.17265
1 9.24448 -0.81461 3.31432
1 9.35499 -0.232569 2.49491
1 9.88234 0.403881 2.05287
1 -10.6407 -0.132367 2.06251
1 -8.96795 -6.75192 10.2627
1 -8.418 -5.95807 10.1455
1 -8.39932 -5.09739 10.5813
1 -8.3939 -4.47575 9.83061
1 -8.90827 -3.87756 9.32309
1 -9.42361 -4.66438 9.12347
1 -10.1269 -5.1341 9.59071
1 -9.98013 -6.02286 9.25214
1 -9.04642 -5.80264 9.31811
1 -8.41489 -6.41696 8.79365
1 4.87353 4.52407 5.27004
1 5.37993 5.12507 4.73453
1 5.47094 5.3567 3.78593
1 6.10986 5.8969 4.27912
1 5.77027 6.32034 3.49207
1 6.47062 6.23997 2.85927
1 6.30119 7.16467 3.05484
1 5.68739 6.98564 2.31642
1 6.07227 6.49601 1.48323
1 5.50794 7.14097 1.05042
1 0.149688 4.74065 -2.5171
1 -0.524221 4.0223 -2.28688
1 -0.527567 4.05294 -3.24061
1 -0.51543 4.97868 -3.42777
1 -0.956389 5.17661 -2.51872
1 -0.672851 4.95212 -1.62167
1 0.189586 4.63965 -1.45794
1 0.466739 3.73518 -1.65707
1 -0.0117856 3.86768 -0.794978
1 -0.982308 3.85024 -0.585577
1 0.368048 9.72108 -5.4399
1 1.17923 10.4038 -5.35881
1 1.05521 10.2671 -6.28161
1 0.198863 10.6282 -5.93943
1 0.299625 10.5562 -6.9004
1 -0.0129554 9.61905 -6.80557
1 -0.019888 8.75638 -7.13711
1 0.606989 8.40264 -7.78722
1 1.01229 9.19806 -7.47048
1 1.51121 9.89776 -7.23812
1 -8.79457 3.63104 -7.24046
1 -8.35471 4.46508 -7.13882
1 -8.51186 5.18434 -7.82045
1 -8.85942 5.63753 -8.60933
1 -9.75448 5.49681 -8.94172
1 -10.0259 6.15769 -8.22115
1 10.383 6.25204 -8.33473
1 10.3299 7.03954 -8.97367
1 -10.2619 6.57829 -9.34306
1 -9.75723 7.2187 -8.79536
1 -5.23661 -8.20432 -6.03836
1 -5.97255 -8.14422 -5.45203
1 -5.35234 -8.17532 -4.71471
1 -5.48231 -8.20858 -3.74803
1 -6.26813 -8.43578 -4.26952
1 -6.16393 -7.51464 -4.35201
1 -6.60984 -6.73718 -4.73995
1 -6.6828 -5.85631 -4.4471
1 -5.83314 -5.78213 -4.1542
1 -5.20689 -6.08756 -3.47707
1 -2.29415 -4.26889 0.422112
1 -3.10564 -4.6007 0.00120133
1 -3.26528 -4.69197 1.00653
1 -2.35469 -4.95019 1.11255
1 -2.24383 -5.79791 1.58401
1 -2.08993 -6.49819 0.968842
1 -2.62139 -5.78084 0.414532
1 -1.94623 -6.15702 -0.182104
1 -2.73169 -6.7 -0.600553
1 -3.02375 -6.74611 0.302058
1 -8.02412 -10.4222 -0.245291
1 -7.17439 -10.1995 -0.657681
1 -6.8697 10.5125 -0.0526217
1 -7.01005 -10.0585 0.549953
1 -6.26515 -9.83529 0.000666276
1 -5.57728 -9.28634 -0.137331
1 -5.26437 -10.1425 -0.0263491
1 -5.85942 10.5368 -0.370469
1 -5.52651 10.1604 0.481257
1 -5.83575 10.2579 1.38065
1 9.06843 -10.1092 5.20666
1 9.66888 -10.5201 5.92165
1 9.00312 -9.77869 6.08182
1 9.51818 -9.90431 6.85834
1 9.42399 -8.92709 6.94102
1 9.45931 -9.10503 7.95776
1 10.3665 -9.19842 7.67183
1 -10.6183 -8.36712 8.03747
1 -10.0116 -7.60983 7.92401
1 -9.46973 -6.8909 8.30386
1 -5.69818 9.0446 -7.01099
1 -5.88948 9.69913 -7.62152
1 -4.9302 9.738 -7.81967
1 -4.69174 8.91549 -7.39192
1 -3.80931 9.05596 -7.79598
1 -4.10673 9.6647 -7.11974
1 -3.3211 9.16826 -6.8265
1 -3.86244 8.36179 -6.9263
1 -4.51625 8.5486 -6.25521
1 -4.35268 8.01164 -5.45533
1 -6.77332 -4.39226 -6.76214
1 -7.03218 -3.43447 -6.58578
1 -6.89455 -2.63523 -7.09307
1 -7.32115 -2.5821 -7.9438
1 -6.87868 -1.92059 -8.49974
1 -7.30821 -1.04943 -8.33306
1 -7.35471 -0.152312 -8.72299
1 -7.59767 -0.0558729 -7.77067
1 -7.82993 0.394964 -6.9872
1 -7.21575 -0.297803 -6.68411
1 -3.34164 3.51941 7.54052
1 -4.01644 3.19135 8.10599
1 -4.79062 3.58549 7.74779
1 -4.83389 3.18819 8.68615
1 -5.57667 2.88955 9.2508
1 -6.32592 2.33854 9.39252
1 -7.1318 2.29161 8.79196
1 -7.31915 3.05265 8.30158
1 -6.6755 3.51937 8.96566
1 -7.21429 4.33802 8.51978
1 -9.69028 -8.87998 7.62194
1 -8.81109 -9.30608 7.59041
1 -9.32831 -9.92361 7.02745
1 -8.51993 -10.419 7.33244
1 -7.62294 -10.0381 7.32677
1 -7.5163 -9.14882 6.94288
1 -8.1458 -8.43716 7.16892
1 -7.80602 -8.91806 7.95393
1 -8.21993 -9.68548 8.2692
1 -7.57377 -10.0937 8.77715
1 1.93455 -2.23896 -10.4268
1 2.45724 -1.42522 -10.291
1 3.11799 -2.15443 -10.5359
1 3.83243 -2.2386 -9.85587
1 3.21011 -2.18243 -9.06138
1 2.5167 -2.58068 -9.57247
1 2.37284 -2.70291 -8.61949
1 3.32726 -3.12172 -8.7262
1 3.54143 -3.6875 -9.45553
1 4.37433 -3.2809 -9.18865
1 -6.60611 9.14206 -2.9031
1 -6.63661 9.90456 -3.43801
1 -7.46419 9.61175 -3.03595
1 -8.16291 9.08934 -2.74179
1 -7.47983 8.32742 -2.82864
1 -7.93384 7.48099 -2.76933
1 -7.1541 7.11443 -3.27103
1 -7.59819 6.39889 -2.80319
1 -7.87324 6.78889 -1.96004
1 -8.1798 5.87297 -2.24136
1 9.3687 -6.78852 7.13629
1 9.32456 -7.74745 7.12956
1 8.67583 -8.27524 7.63034
1 8.14959 -8.98706 8.01506
1 8.54387 -9.50408 7.31
1 8.12584 -9.58243 6.42826
1 7.57786 -10.198 5.96802
1 7.13054 -10.277 6.7457
1 6.55673 -9.93593 6.09261
1 6.52433 10.4002 6.12816
1 -0.26896 -1.21049 -4.69231
1 0.546463 -0.783722 -4.88261
1 0.576412 -0.571757 -4.01696
1 0.831843 0.293087 -3.58326
1 -0.00857855 0.682471 -3.59077
1 -0.439117 -0.137201 -3.87293
1 -0.308107 -0.976436 -3.35474
1 0.139452 -0.563985 -2.59293
1 0.912127 0.00700363 -2.5137
1 0.299865 0.170998 -1.73835
1 8.24592 -9.8315 -4.67754
1 8.2848 -8.83067 -5.09107
1 7.68235 -8.139 -4.82778
1 8.56544 -7.75544 -4.7436
1 8.7762 -8.24573 -3.91276
1 8.3078 -7.48764 -3.65786
1 8.69397 -7.09204 -2.94798
1 8.38122 -6.66335 -2.08844
1 7.64429 -6.11052 -2.32155
1 8.47092 -5.66487 -2.57115
1 5.10148 7.87062 -2.89649
1 5.41998 7.66481 -3.72486
1 5.68228 8.28587 -4.38978
1 5.46372 9.00399 -4.89429
1 5.07191 9.83982 -4.65584
1 5.8955 10.2778 -4.69615
1 6.82095 10.0619 -4.5153
1 6.40015 9.59665 -5.2231
1 7.11704 9.12137 -5.01503
1 7.76296 9.66485 -4.4576
1 -4.13174 8.84883 -3.05268
1 -4.25409 8.34781 -2.22686
1 -3.9317 7.6265 -2.87331
1 -4.89878 7.45194 -2.83443
1 -4.48186 7.31812 -1.98313
1 -4.54248 6.38107 -1.76665
1 -3.55025 6.28704 -1.85353
1 -3.92199 5.73596 -2.55657
1 -4.17215 6.5377 -3.07938
1 -5.04821 6.29379 -2.7547
1 -0.200111 -7.07803 0.945144
1 -1.03345 -7.22057 0.58467
1 -1.89012 -7.12234 0.173526
1 -2.27142 -7.73331 0.791752
1 -1.39544 -7.9802 1.17249
1 -1.54851 -7.96615 2.06596
1 -0.756158 -7.48375 1.89238
1 -0.790249 -7.58888 2.84419
1 0.192359 -7.49331 2.62775
1 -0.219247 -6.63659 2.41264
1 -2.0147 -1.30461 9.32957
1 -2.58167 -1.08546 10.0531
1 -2.6727 -0.15098 9.98712
1 -1.98388 0.447723 10.3112
1 -1.53716 0.00412444 9.60134
1 -0.797285 0.530593 9.11368
1 -1.30508 1.00125 9.75192
1 -1.77653 1.60073 9.09424
1 -0.827856 1.47202 8.70976
1 -0.709661 2.2882 9.12531
1 2.60964 2.51391 8.90274
1 2.63816 1.52562 8.88183
1 2.41754 1.65137 9.79043
1 2.63594 2.52564 10.0184
1 2.44725 2.99384 -10.4495
1 2.19217 3.6317 10.1476
1 1.76926 3.85918 -10.3975
1 0.978996 3.42666 10.6503
1 0.963806 3.79062 -9.76793
1 1.78252 3.59247 -9.21645
1 1.57078 -0.787246 -4.13549
1 1.86529 -0.0959222 -4.67319
1 2.68353 0.0566268 -5.11169
1 3.27272 -0.031123 -5.98074
1 2.49564 0.438971 -6.31008
1 1.8013 0.266931 -5.67097
1 1.90653 -0.560182 -6.11942
1 2.54995 -1.26252 -6.23647
1 3.0361 -1.61598 -5.44979
1 2.12287 -1.32138 -5.20571
1 10.6067 -6.30778 1.15995
1 -9.92069 -5.76938 1.32568
1 -10.2366 -5.27365 0.487856
1 -10.3595 -5.13388 -0.476033
1 -10.5653 -4.18692 -0.553025
1 -10.2567 -3.28553 -0.730612
1 -9.59872 -3.01552 -0.0611066
1 -9.81011 -2.08756 -0.280533
1 -9.10635 -1.5972 -0.815777
1 -9.16495 -0.689669 -0.287628
1 -6.80491 -0.0190065 5.76709
1 -6.98873 0.912491 5.75401
1 -7.64453 0.718271 5.01482
1 -7.9297 -0.147362 5.45329
1 -8.45459 0.152965 6.2357
1 -8.11291 1.05194 6.01122
1 -8.70992 1.69225 5.5522
1 -7.92153 2.13065 5.69594
1 -7.87451 2.89238 6.22415
1 -8.809 2.83968 6.08802
1 8.54337 -5.08452 9.22579
1 9.04005 -5.35722 10.0146
1 8.75345 -5.6186 -10.5003
1 8.72412 -6.62028 -10.5183
1 8.37332 -6.16456 -9.7185
1 7.77196 -6.73034 -9.24497
1 7.13219 -6.19623 -8.65893
1 6.95609 -5.37812 -9.29424
1 6.94594 -6.20236 -9.76187
1 6.82105 -6.40889 10.664
1 7.88553 9.05942 -7.60695
1 7.25615 9.47162 -6.9694
1 8.04848 9.46338 -6.47316
1 7.95662 8.88336 -5.70977
1 8.7593 8.33557 -5.65373
1 8.90799 9.02519 -4.98366
1 9.50742 9.19614 -4.25185
1 9.43738 8.24391 -4.23927
1 10.0051 8.30032 -5.04545
1 10.1487 9.1273 -5.58957
1 -4.14354 1.89626 -4.31787
1 -4.48836 1.52315 -3.52033
1 -5.13096 1.63753 -4.28495
1 -4.5379 0.972557 -4.60211
1 -4.34985 1.52338 -5.33689
1 -3.46316 1.46697 -5.65238
1 -3.72146 1.10304 -6.5645
1 -3.09162 1.76286 -6.90547
1 -3.8477 2.18852 -6.53523
1 -3.85944 2.51327 -5.64001
1 -5.16494 -4.88865 2.11394
1 -5.72699 -5.47614 1.60924
1 -6.44223 -4.92204 1.97447
1 -6.92325 -5.56294 1.33826
1 -6.95737 -6.15211 0.562033
1 -6.81929 -6.76481 -0.194668
1 -6.72091 -7.65797 -0.552463
1 -6.08396 -8.35052 -0.331214
1 -5.14621 -8.3585 -0.719151
1 -4.23837 -8.4732 -0.427976
1 -2.71283 1.36219 5.61221
1 -2.43658 0.457525 5.49335
1 -2.73012 -0.438475 5.47137
1 -2.66727 -0.384953 6.42528
1 -2.43845 0.191765 7.16642
1 -2.67557 0.987991 6.69164
1 -3.19657 0.73654 7.52966
1 -2.5617 1.15741 8.17772
1 -3.41574 1.43844 8.55826
1 -2.78899 1.86667 9.13855
1 -0.962129 10.3622 4.24649
1 -1.29331 9.46334 4.16476
1 -0.3394 9.4309 4.0156
1 0.539214 9.86391 4.24626
1 1.15425 10.4015 4.62867
1 0.304761 -10.5422 4.52037
1 -0.197609 -9.80675 4.89909
1 -0.487716 -9.56385 4.0268
1 -0.143245 -8.61046 3.99715
1 0.235858 -8.3325 4.82789
1 -6.18807 -2.63223 8.42339
1 -7.12301 -2.90602 8.19921
1 -7.42577 -3.80182 8.36424
1 -6.92404 -3.89299 7.48664
1 -6.74171 -4.60157 8.12953
1 -6.32722 -3.7976 8.5091
1 -5.58226 -3.49942 8.01131
1 -6.0554 -3.47657 7.16428
1 -5.87094 -4.39554 7.48342
1 -6.55167 -4.91207 7.13072
1 10.4727 -7.85514 3.92652
1 9.90949 -7.26653 3.41099
1 9.22981 -6.74317 3.76644
1 8.86552 -6.77678 2.89862
1 8.14972 -6.44302 2.30383
1 7.79529 -7.22947 2.61387
1 7.32836 -8.17139 2.48953
1 8.29074 -8.03744 2.7761
1 8.33199 -7.46871 3.55601
1 9.11526 -8.1438 3.56863
1 7.85762 5.49767 -7.00028
1 7.94473 4.64773 -6.58587
1 7.50866 4.48436 -5.69468
1 7.12416 5.10689 -6.35555
1 6.4019 5.69943 -6.43784
1 7.19772 6.085 -6.07108
1 6.96753 5.46067 -5.33471
1 6.02586 5.36289 -5.53494
1 5.53997 6.22337 -5.45375
1 4.53748 6.5006 -5.48849
1 -2.82565 -9.54147 10.2415
1 -2.41589 -9.14197 -10.2853
1 -1.65179 -8.53758 -10.351
1 -1.01852 -7.93212 -10.1053
1 -1.77137 -7.44457 -9.95038
1 -1.70709 -6.51739 -9.74796
1 -1.31438 -6.01976 -10.4767
1 -0.858287 -5.96949 -9.55685
1 -0.316185 -5.61653 -10.2387
1 0.349963 -5.00677 -10.0481
1 2.52145 2.60662 2.60632
1 1.84156 2.216 2.07328
1 2.14676 1.35196 1.83645
1 2.36891 0.537151 1.29437
1 2.1628 0.886002 0.412723
1 3.03948 0.6995 0.193273
1 3.80436 1.14743 -0.0898294
1 3.34989 1.92609 -0.510346
1 2.45033 1.64788 -0.663269
1 2.27006 0.69844 -0.693449
1 1.70854 0.304429 7.47692
1 1.12787 -0.298984 7.90787
1 1.90592 -0.932235 7.8835
1 1.65629 -1.29831 8.7135
1 1.14323 -0.516202 8.87279
1 1.27404 -0.931095 9.67721
1 1.90993 -0.199155 9.86214
1 2.72708 0.219523 10.1302
1 3.19874 0.374769 9.36065
1 3.54744 0.32319 8.50464
1 2.97951 -6.34449 -8.59902
1 2.21902 -6.68855 -8.17405
1 1.85234 -6.72536 -7.24012
1 1.50954 -5.94271 -7.66624
1 1.68876 -4.9088 -7.84894
1 0.783843 -4.93107 -7.89264
1 0.375264 -5.63928 -7.3104
1 -0.11392 -6.39092 -7.50611
1 -0.632654 -5.59878 -7.57902
1 -0.0260123 -5.36735 -8.39084
1 5.35715 -0.331976 8.48261
1 6.0345 -1.01278 8.34676
1 5.24839 -1.47428 7.98535
1 5.45465 -1.43929 7.05046
1 6.25557 -1.90205 7.37919
1 5.97376 -2.8164 7.50394
1 6.71322 -2.85697 8.08908
1 7.46366 -3.01832 7.42089
1 6.9096 -2.69597 6.72704
1 6.04757 -3.10528 6.53717
1 -8.33954 2.9177 -8.92347
1 -8.02508 2.99556 -9.81989
1 -8.88547 3.46852 -9.73806
1 -9.75104 3.22196 -9.67668
1 -9.79511 4.08499 -9.31826
1 -10.1094 4.0948 -10.2483
1 10.3656 4.49725 -10.2784
1 10.5998 4.71828 -9.393
1 -10.3833 4.7037 -8.53596
1 10.0314 5.05141 -8.64979
1 -9.71401 9.01371 -6.69364
1 -10.3929 8.78177 -7.35177
1 10.5249 9.40032 -6.77475
1 -10.2264 10.17 -6.84641
1 -10.2152 9.85315 -7.74273
1 -9.27667 10.1579 -7.6871
1 -9.08126 -10.2704 -7.81706
1 -8.6745 10.5225 -8.48848
1 -7.84868 10.6573 -8.94181
1 -6.9363 -10.3045 -9.049
1 1.81435 8.2286 -4.10368
1 2.63013 7.96198 -4.55237
1 2.42795 7.18253 -4.02142
1 1.78871 7.59906 -3.36793
1 1.42183 6.78151 -3.20215
1 1.9395 6.03899 -2.89611
1 1.49625 5.21775 -3.00161