8000
Atoms. Timestep: 3200000
1 7.05172 -5.5368 -5.77551
1 6.49569 -5.79408 -6.55718
1 6.1832 -6.22462 -7.41133
1 5.68455 -5.4576 -7.44525
1 6.50878 -5.06447 -7.87773
1 7.32351 -5.24648 -8.31268
1 6.85567 -4.41554 -8.63703
1 6.77202 -3.76186 -9.34147
1 7.72321 -3.63517 -9.32888
1 7.49294 -4.34215 -9.98195
1 -7.60557 -9.30362 1.27842
1 -6.91784 -8.77103 1.82115
1 -7.72865 -9.10465 2.30006
1 -8.41146 -8.72637 2.84583
1 -8.71711 -7.97977 2.33337
1 -7.822 -7.77147 1.98394
1 -7.12232 -7.18072 2.10002
1 -7.65239 -6.68794 2.82262
1 -7.81281 -7.57571 3.00358
1 -8.6933 -7.18471 3.40428
1 -2.74256 -2.88418 -0.482257
1 -3.23118 -3.05868 0.30699
1 -3.03365 -2.0679 0.315236
1 -2.71629 -1.17941 -0.0572963
1 -3.13957 -0.298829 -0.397029
1 -2.29411 -0.52642 -0.700007
1 -2.96371 -0.707931 -1.33152
1 -3.92055 -1.00747 -1.05437
1 -4.5207 -1.59908 -0.59124
1 -4.62101 -2.14517 -1.31004
1 3.83635 -8.73666 7.21711
1 4.17978 -8.93351 6.35013
1 4.69844 -8.23031 6.04643
1 5.55984 -8.63758 6.05292
1 5.9407 -8.20204 5.26613
1 5.50724 -7.50005 5.6751
1 6.45135 -7.3897 5.6126
1 6.96513 -6.58292 5.53862
1 6.79293 -5.78106 5.96834
1 5.94748 -5.80655 6.41487
1 4.19345 -9.81276 -1.67977
1 4.1013 -8.87685 -1.93547
1 3.38602 -8.36415 -1.60818
1 3.10579 -8.81845 -2.39572
1 2.54493 -9.15433 -1.71464
1 2.64667 -9.97352 -2.19497
1 2.28805 10.6359 -2.5667
1 1.45306 -10.5574 -2.02832
1 2.08008 10.3242 -1.4322
1 2.90439 9.7798 -1.53641
1 -2.50355 -1.57707 -1.14145
1 -1.95559 -1.9945 -1.75398
1 -1.59711 -2.04214 -2.65849
1 -0.870591 -2.61404 -2.56247
1 -0.131713 -2.76932 -1.98302
1 0.472595 -2.92985 -1.29949
1 0.287694 -2.03924 -0.968377
1 0.0375831 -1.16604 -1.19283
1 -0.375279 -0.704593 -1.94644
1 -0.645983 -1.4636 -2.57014
1 6.95832 -2.09726 0.242124
1 7.76928 -2.70505 0.317072
1 8.04109 -1.8842 0.00302382
1 9.04625 -1.7989 0.136762
1 8.87678 -2.63885 0.641987
1 9.60271 -2.27819 1.1811
1 9.50348 -1.35232 0.972792
1 9.36969 -0.806182 0.174152
1 10.2805 -1.29663 0.0886795
1 10.3225 -0.402595 -0.360712
1 -8.04563 -3.02768 -6.43969
1 -8.93465 -2.8063 -6.57638
1 -9.49338 -3.5969 -6.57391
1 -9.45932 -4.49138 -6.28519
1 -9.43696 -4.51491 -5.34324
1 -9.99976 -5.22138 -4.99131
1 -10.3166 -5.84989 -4.26161
1 -9.41645 -6.05043 -4.49375
1 -9.66818 -6.98601 -4.52232
1 -9.29129 -7.77842 -4.07303
1 -1.13626 1.07548 0.386693
1 -1.82941 1.68799 0.159743
1 -2.71313 1.44872 0.370642
1 -3.1349 0.890805 -0.28649
1 -2.81035 0.208785 0.413225
1 -2.25519 0.621775 1.01568
1 -2.0262 -0.132454 1.56563
1 -2.70541 -0.699938 1.17271
1 -2.82538 -0.944712 2.09401
1 -2.42682 -0.214004 2.48501
1 -5.77137 -0.823496 -3.84824
1 -5.29393 -1.04545 -4.58874
1 -6.10837 -1.40684 -5.07933
1 -7.01365 -1.6266 -5.22982
1 -6.95078 -2.03164 -6.09653
1 -6.65209 -1.14177 -5.9997
1 -7.60865 -1.01023 -6.08227
1 -7.7608 -1.69794 -6.65645
1 -6.92765 -1.60275 -7.08424
1 -6.91584 -2.17491 -7.89293
1 0.644661 -4.6055 -2.60183
1 0.516136 -5.09954 -1.8307
1 -0.189311 -5.70859 -1.48044
1 -0.521658 -5.01927 -1.96922
1 -0.0220522 -5.39721 -2.6505
1 -0.0722702 -5.27828 -3.60973
1 0.542047 -4.59408 -3.8722
1 0.800002 -3.61446 -3.84898
1 1.12138 -2.70001 -4.11698
1 0.633924 -2.38922 -4.88787
1 3.41385 -8.06849 -10.5983
1 3.72501 -8.48825 -9.66661
1 4.40631 -8.52752 -8.94465
1 4.63079 -7.97131 -9.75411
1 4.73724 -8.82954 -10.2087
1 5.11 -9.23511 -9.3835
1 5.79783 -9.88472 -9.31994
1 6.53256 -9.98759 -8.67489
1 6.93951 -9.37527 -8.10176
1 7.21379 -9.2212 -7.17015
1 -3.5337 7.86149 -2.02703
1 -4.41255 7.75025 -2.40406
1 -5.29616 8.11338 -2.46997
1 -4.72225 8.86328 -2.38926
1 -4.50616 8.97914 -1.49394
1 -4.91786 9.81489 -1.9524
1 -5.80118 10.1252 -2.01303
1 -6.50153 10.1786 -1.30382
1 -5.9586 9.38399 -1.07095
1 -5.46703 8.56601 -1.34722
1 4.36917 -1.23968 -10.2285
1 4.76008 -1.6353 10.3891
1 5.50915 -1.38804 -10.4848
1 5.19952 -2.01156 -9.80559
1 6.11328 -2.19042 -10.2515
1 6.20399 -2.65069 10.3066
1 5.2897 -2.70088 10.6404
1 4.90731 -2.57451 9.79425
1 4.35197 -3.21555 9.27263
1 3.44234 -3.32394 9.16797
1 2.73465 0.189278 -2.971
1 3.2479 -0.612408 -3.01956
1 3.59526 -1.48305 -2.82598
1 3.90363 -1.76337 -1.85201
1 2.94742 -1.80918 -1.90464
1 2.90281 -2.64065 -2.33581
1 3.7567 -2.72628 -2.85171
1 3.04248 -2.33436 -3.47226
1 3.44241 -1.5878 -4.02753
1 4.18117 -1.91834 -3.54144
1 2.50817 9.862 -4.48955
1 2.47081 10.1854 -3.60226
1 2.90059 9.30803 -3.46859
1 1.90582 9.32786 -3.41088
1 1.43308 8.46716 -3.58379
1 0.919279 8.05214 -4.34998
1 1.46752 8.01179 -5.0579
1 1.86344 7.67102 -4.25509
1 1.27584 6.93172 -4.21454
1 0.892395 6.69828 -5.09534
1 9.41545 -1.20804 -7.96916
1 8.94712 -1.66646 -8.60648
1 9.72206 -1.36517 -8.98701
1 9.52579 -2.19149 -9.48207
1 9.35869 -2.67867 -8.6408
1 8.55124 -3.12008 -8.8965
1 9.33716 -3.46296 -9.3196
1 9.22358 -4.36904 -8.94546
1 9.75474 -4.64171 -9.62844
1 10.1666 -5.26833 -10.3317
1 1.50123 8.2729 -2.39373
1 1.83684 7.46699 -2.06046
1 2.5674 7.40423 -1.40664
1 3.19723 8.07099 -1.09472
1 2.87808 8.69914 -0.420596
1 3.61698 9.28645 -0.238564
1 4.06156 9.48485 -1.06947
1 4.19801 8.55489 -1.23531
1 4.11829 7.77088 -1.7051
1 4.2278 6.77079 -1.70215
1 -7.02588 -4.30935 0.668566
1 -7.1316 -3.37307 0.915684
1 -6.52402 -3.58557 0.160176
1 -6.65685 -4.31623 -0.389162
1 -7.07166 -5.04415 -0.853483
1 -7.82093 -5.34195 -1.35376
1 -7.98254 -4.69483 -0.673977
1 -8.62521 -4.81619 -1.29492
1 -9.45991 -4.56005 -0.895698
1 -8.7616 -4.0535 -0.570221
1 -5.50504 -5.17994 -4.2693
1 -5.02238 -4.41092 -4.01599
1 -5.81221 -4.55052 -3.47337
1 -6.43271 -4.0848 -4.15388
1 -6.60169 -5.10319 -4.23302
1 -7.52776 -4.96594 -4.18887
1 -7.1347 -4.68449 -5.0449
1 -7.8704 -4.15856 -5.15842
1 -7.61754 -4.35537 -6.02622
1 -8.32092 -4.94552 -5.8591
1 2.46867 8.32328 -6.16312
1 2.48483 8.33551 -5.16629
1 2.83741 7.97493 -4.36905
1 3.64049 7.84159 -3.83542
1 3.27007 6.98169 -3.73016
1 3.33687 6.19326 -3.18884
1 3.99627 5.67625 -3.69806
1 4.43681 4.9699 -4.11525
1 5.26261 5.48004 -4.10802
1 5.15088 5.42743 -3.15066
1 6.78061 3.18351 -5.01443
1 6.58488 4.0458 -4.54794
1 7.36932 4.22853 -4.95891
1 6.67158 4.39605 -5.61712
1 5.86398 4.71473 -5.32211
1 6.57497 5.12844 -4.87393
1 6.77123 5.83513 -4.26587
1 6.72462 6.70102 -4.83958
1 6.07442 6.99432 -4.12988
1 6.55175 7.80497 -3.96547
1 -3.17052 -10.3822 -5.19924
1 -2.34068 -10.5286 -4.6783
1 -1.43658 -10.6665 -4.52257
1 -1.22587 -9.86022 -5.05918
1 -0.399732 -10.3328 -4.85992
1 -0.766841 -9.94796 -4.10387
1 -0.60659 -9.03109 -4.29676
1 0.265466 -9.31197 -4.08443
1 0.252872 -10.1774 -3.56781
1 0.360969 10.3947 -4.03424
1 2.80345 -8.92113 4.17484
1 3.53893 -8.49769 4.39249
1 3.99743 -9.18463 3.86722
1 3.90009 -8.98526 2.92912
1 2.9195 -8.91695 2.97031
1 2.18585 -8.56344 3.40609
1 1.64971 -8.61809 4.23631
1 1.60056 -9.59831 4.60488
1 2.57276 -9.8366 4.97021
1 3.2975 -9.87023 4.29574
1 1.98039 -8.33983 2.22565
1 1.06672 -8.6413 2.31758
1 0.970317 -8.59873 1.35574
1 0.496242 -9.4036 1.53594
1 1.29107 -9.56837 1.08229
1 1.83797 -9.57731 0.247888
1 2.62553 -9.00433 0.419555
1 2.17945 -8.83174 1.31022
1 3.12313 -9.16363 1.3898
1 2.60464 -9.51029 2.06482
1 -10.4737 7.35176 -6.12921
1 -9.64137 7.63284 -6.62084
1 -9.81657 8.2631 -7.32947
1 -10.0504 8.89061 -6.68962
1 -9.47965 9.20282 -7.40394
1 -8.76228 9.73632 -6.98727
1 -8.54028 10.6734 -6.95031
1 -7.89002 -10.2956 -7.40801
1 -7.36624 10.3049 -7.38855
1 -8.11683 9.90797 -7.75561
1 6.43694 -5.17786 -10.5683
1 6.9562 -4.44635 10.353
1 7.28472 -3.60836 9.94276
1 6.52263 -3.78753 9.41174
1 5.61093 -4.18975 9.33733
1 5.92118 -5.08402 9.1306
1 6.8514 -5.29081 9.04349
1 7.27814 -5.73129 9.72326
1 7.01696 -6.62593 9.77507
1 7.55675 -6.90502 9.03461
1 8.97909 6.30669 6.42191
1 9.08786 5.3175 6.51734
1 8.29559 4.74961 6.48388
1 7.50282 5.07411 6.02367
1 7.9792 4.52711 5.44918
1 7.8987 4.49622 4.50108
1 7.59387 5.00493 3.7954
1 7.30162 5.83549 4.19894
1 6.99688 5.27756 4.92385
1 6.65302 4.83787 4.09904
1 -4.83931 5.91491 -1.86506
1 -4.97209 5.94775 -0.859175
1 -4.66718 6.76005 -1.28263
1 -5.22946 7.17694 -1.91679
1 -5.98044 7.68244 -1.37417
1 -6.72189 7.13882 -1.54544
1 -6.98616 6.49598 -0.914083
1 -7.82632 6.85937 -1.01826
1 -8.68288 7.01695 -0.570476
1 -9.46814 7.18244 -0.114769
1 0.93417 8.51059 7.22731
1 1.5433 8.49439 7.97794
1 1.97931 8.92585 7.24967
1 2.27065 8.88127 6.32086
1 2.0341 9.76649 5.93475
1 2.46224 10.427 5.37657
1 1.66316 -10.6333 5.74899
1 1.6376 10.6782 4.77811
1 1.69731 9.98272 4.11697
1 1.26715 9.81689 4.97926
1 -2.22846 -10.0343 -1.82715
1 -1.81388 -10.121 -0.904055
1 -1.15228 -10.0477 -1.6074
1 -0.684058 -10.064 -0.745589
1 0.106545 -9.81771 -1.18425
1 0.347159 10.6869 -1.43983
1 0.279229 9.97229 -2.01253
1 0.512534 10.6863 -2.64591
1 -0.161561 10.239 -3.14442
1 0.284317 9.49242 -3.52236
1 9.15152 -7.7052 -10.3034
1 9.51854 -8.41026 10.5
1 9.3806 -9.24753 -10.404
1 9.84099 -9.41251 -9.53865
1 -10.6499 -9.71793 -9.25322
1 -9.62484 -9.57686 -9.2535
1 -9.75524 -9.78003 -8.38961
1 -8.95109 -10.3048 -8.24871
1 -8.035 -10.0197 -8.47959
1 -7.17772 -9.73487 -8.15541
1 3.93067 2.09739 -2.88465
1 3.99869 2.91367 -2.44102
1 3.17874 3.09118 -2.08582
1 3.65265 3.57799 -1.46575
1 2.91073 4.12059 -1.65927
1 2.25934 4.65519 -1.09022
1 2.43898 4.97226 -2.04763
1 1.55969 4.78533 -1.91441
1 1.71822 3.91992 -1.46066
1 1.9071 3.35127 -2.17338
1 -10.582 3.10681 6.91366
1 9.93644 3.23266 6.50657
1 9.60826 2.65312 7.29696
1 9.25825 2.082 8.09432
1 9.71641 1.84746 8.92816
1 9.66642 2.8286 8.98533
1 10.1529 2.71956 8.20683
1 10.646 2.44693 9.05526
1 10.5677 3.27656 9.50201
1 9.71825 3.37159 9.95436
1 2.49715 -8.80548 -10.5304
1 2.17197 -8.24181 -9.82537
1 2.69063 -7.49759 -10.1999
1 1.9562 -6.95931 -10.5404
1 2.15594 -6.77946 -9.55688
1 2.10171 -5.98704 -10.1052
1 3.00717 -5.68289 -9.88189
1 3.12282 -6.67392 -9.88239
1 3.42511 -7.3397 -9.19347
1 2.68836 -7.97466 -8.95902
1 -4.18983 -0.623323 0.907024
1 -3.71418 -1.14 0.245964
1 -4.21797 -0.404664 -0.0749676
1 -4.96897 -0.998875 0.180338
1 -4.87036 -1.60357 0.94337
1 -5.28988 -1.05876 1.59792
1 -5.83832 -1.75847 1.95871
1 -6.73167 -2.02311 2.33679
1 -6.52936 -2.97381 2.45409
1 -6.45582 -2.67314 1.55268
1 -3.23516 9.8383 5.83316
1 -3.78931 9.0367 5.6081
1 -4.62222 9.09087 5.13065
1 -5.20438 9.69025 4.60953
1 -5.20001 10.1792 5.48701
1 -4.25087 10.1872 5.43343
1 -4.51396 10.3601 6.36847
1 -3.6428 10.5884 6.68057
1 -2.97894 -10.5465 7.4696
1 -2.7288 -9.9119 6.82588
1 -0.534046 9.20907 3.16427
1 0.135204 8.57602 2.80757
1 0.354214 9.08118 3.68336
1 1.33314 9.1446 3.43944
1 1.67984 8.31463 3.67783
1 1.74018 7.58871 4.28693
1 1.22059 6.87502 3.82903
1 0.705937 7.7117 3.64609
1 -0.254981 7.78395 3.51222
1 -0.834592 7.92673 2.75008
1 -6.75455 -0.187531 9.12855
1 -6.51431 -0.889271 8.49282
1 -5.52392 -0.963663 8.69096
1 -5.65083 -1.20985 7.78763
1 -4.79235 -1.28928 7.50693
1 -4.86994 -0.313026 7.6676
1 -4.57359 0.514034 8.04776
1 -3.90665 0.145968 7.45345
1 -3.35078 0.701463 6.8052
1 -4.00517 0.580774 6.08328
1 -9.27074 -2.09939 -2.2022
1 -8.93014 -2.50186 -3.04082
1 -8.40295 -2.74535 -2.27895
1 -7.70653 -2.10541 -2.16656
1 -7.3441 -3.03368 -2.18514
1 -7.93757 -3.78485 -2.41335
1 -7.84004 -3.14885 -3.09984
1 -7.36044 -2.39866 -3.44419
1 -7.63525 -2.24399 -4.29113
1 -6.64778 -2.24151 -4.53536
1 4.56291 1.05402 2.26958
1 4.20281 1.80026 1.71218
1 4.51924 2.19619 2.51908
1 3.88159 2.43939 3.16417
1 3.70127 3.34341 2.94976
1 4.35847 4.12174 3.28327
1 4.71316 3.25452 3.58395
1 5.02074 2.33609 3.73599
1 4.83586 2.34572 4.69316
1 5.56355 2.94312 4.64178
1 9.38763 -6.65997 1.40648
1 9.95035 -6.27741 0.738712
1 9.95596 -5.59218 1.35005
1 9.80256 -5.1546 2.18049
1 10.4364 -4.50983 1.99932
1 9.92578 -4.20262 2.66511
1 -10.6728 -3.72293 2.68956
1 -10.0431 -3.1603 2.24648
1 -9.66795 -3.92609 1.80739
1 -8.9042 -4.05457 2.36747
1 4.32964 3.81895 0.332486
1 3.6238 3.94368 -0.401474
1 2.82461 3.54322 -0.622417
1 3.3598 2.91216 -0.00653735
1 3.88738 2.3542 0.562024
1 4.77364 2.74049 0.391996
1 4.91497 3.35722 1.07188
1 4.51628 2.64386 1.54224
1 3.77846 2.77764 2.06669
1 2.94302 3.1263 1.82389
1 -2.4022 -4.74637 -4.15813
1 -2.68938 -3.86277 -4.45421
1 -2.02155 -3.71264 -3.79055
1 -2.57137 -3.31385 -3.19462
1 -3.33967 -2.68655 -3.14204
1 -3.47793 -2.07429 -3.86182
1 -3.82637 -2.97785 -3.99275
1 -4.39253 -2.76565 -4.74372
1 -3.57999 -2.33202 -5.05384
1 -2.95643 -2.82194 -4.52931
1 -2.9898 6.82408 10.0734
1 -3.4023 6.72164 9.20681
1 -3.75109 7.38033 8.67597
1 -3.31826 8.29767 8.69343
1 -3.3793 8.98461 7.91346
1 -4.38989 9.1511 7.9047
1 -5.29461 9.22023 8.25582
1 -4.77367 10.0416 8.40974
1 -5.32652 10.5359 7.79053
1 -5.50244 9.74038 7.29831
1 1.5398 5.70027 3.86536
1 1.04281 5.62473 3.07691
1 0.650859 6.36089 2.70971
1 -0.141582 5.724 2.77882
1 -0.83469 5.92844 3.4215
1 -0.774777 5.18189 4.05724
1 -1.19408 4.41707 4.48332
1 -2.0954 4.41014 4.70802
1 -1.78088 4.66624 5.57
1 -1.00631 5.03285 5.19217
1 -3.7462 -1.01882 7.12777
1 -3.01868 -1.33714 6.67787
1 -3.80235 -1.2113 6.09291
1 -4.4744 -1.01128 5.45845
1 -4.8152 -1.16496 6.3053
1 -4.38056 -1.90991 6.72582
1 -4.36379 -2.23164 5.72924
1 -5.22898 -2.63696 5.53012
1 -5.629 -2.12296 6.22029
1 -5.60944 -1.50424 5.48995
1 -0.114862 -4.33979 -4.7503
1 -0.657167 -5.12179 -4.67869
1 -1.12786 -4.58962 -4.07301
1 -0.648843 -3.72329 -4.0534
1 -0.329345 -3.04284 -3.56412
1 -0.448994 -2.38249 -4.15652
1 -1.34064 -2.41562 -3.92282
1 -1.42971 -2.98052 -4.69741
1 -0.939967 -2.28072 -5.2181
1 -0.0502794 -2.58301 -5.81301
1 -1.78822 -5.76749 3.10375
1 -1.57539 -6.70826 3.10919
1 -0.813539 -6.051 3.11209
1 -0.36162 -5.48392 3.71997
1 -0.191752 -4.56489 4.05593
1 -0.231531 -5.28518 4.64788
1 0.0266236 -6.14338 4.54624
1 0.610489 -5.77724 5.27184
1 0.16636 -6.10042 6.06187
1 -0.572781 -6.05516 5.48097
1 -1.9907 -7.83458 -3.18333
1 -1.85784 -8.43138 -3.94467
1 -1.41339 -9.13297 -3.51835
1 -2.15648 -9.72909 -3.36655
1 -1.99185 -9.5463 -4.32277
1 -2.95318 -9.65377 -4.4476
1 -2.74322 -9.43104 -5.33143
1 -2.41183 -8.58421 -4.82298
1 -2.71543 -7.88584 -4.24895
1 -2.30315 -7.1437 -3.85806
1 8.82925 7.96384 -9.3462
1 9.58921 8.25651 -8.85193
1 9.73681 8.32757 -9.76738
1 8.94508 8.26356 -10.3871
1 8.41025 7.85056 10.3099
1 8.63821 7.4014 9.53756
1 8.00102 7.99756 9.1128
1 7.52941 8.71952 8.77704
1 6.6846 9.23431 8.86155
1 6.59373 9.30058 9.85753
1 -1.25445 -8.04556 1.16876
1 -0.968025 -8.61149 0.426159
1 -0.4199 -8.87533 1.27879
1 -0.283352 -9.79509 1.12257
1 -0.725837 -9.82443 0.277798
1 -0.356975 -9.19404 -0.343738
1 -0.808222 -8.37798 -0.607215
1 -0.138376 -7.66518 -0.532532
1 0.403088 -8.46826 -0.931915
1 0.619795 -8.34876 0.0396324
1 8.24842 3.22048 -4.62423
1 7.54471 3.42505 -4.07401
1 7.83595 2.53618 -3.5868
1 7.64508 2.95107 -2.74364
1 7.35676 2.29392 -2.20778
1 6.60329 2.54837 -1.78615
1 7.04963 3.09965 -1.17281
1 5.97172 3.19519 -0.998459
1 5.48079 2.58727 -0.418902
1 5.86097 1.90022 0.110342
1 -6.76974 -5.08412 -8.57539
1 -5.99753 -4.55806 -8.36395
1 -5.72674 -3.77332 -7.89745
1 -5.99896 -3.36709 -8.73183
1 -6.94097 -3.74314 -8.66665
1 -7.46836 -2.98637 -8.39234
1 -6.84575 -2.75569 -9.09356
1 -6.41766 -3.45657 -9.78254
1 -5.4484 -3.48738 -9.74151
1 -4.52215 -3.83357 -9.74426
1 -2.79619 0.130069 -9.08211
1 -1.84946 0.335513 -9.0636
1 -2.33447 1.0697 -8.67815
1 -1.49446 1.41981 -8.3533
1 -0.70098 0.817157 -8.78186
1 0.0179076 0.477852 -8.28104
1 0.316738 -0.417219 -8.03442
1 -0.24952 -1.04302 -7.62816
1 -0.557449 -1.22483 -6.77645
1 -1.21901 -1.57104 -6.28226
1 2.61979 -5.84772 9.39883
1 1.8215 -6.08453 9.83847
1 1.78594 -6.52278 9.01703
1 1.41383 -6.93087 8.16963
1 0.535264 -6.66698 7.89276
1 0.554161 -7.3194 8.5737
1 -0.172589 -7.39103 9.11337
1 0.651308 -7.20602 9.53851
1 0.814745 -6.3759 9.9017
1 0.509894 -7.11407 10.5427
1 4.72628 -8.85392 4.95289
1 5.55536 -9.20983 5.16661
1 4.78949 -9.485 5.73869
1 3.89673 -9.48115 5.38841
1 3.11705 -9.08221 5.72636
1 3.02421 -10.1139 5.90209
1 2.22113 -9.7354 6.09534
1 1.58898 -10.1884 6.6558
1 0.783609 -9.96201 7.20789
1 1.02793 10.6778 7.77401
1 -4.27811 -8.21063 -7.07387
1 -3.6437 -7.55714 -7.00476
1 -3.06978 -6.80991 -7.00509
1 -2.48231 -7.28566 -6.4568
1 -1.73611 -6.86058 -6.98284
1 -0.834411 -7.21324 -6.736
1 -1.54229 -7.80845 -6.26023
1 -0.741669 -7.61348 -5.82489
1 -0.447647 -8.33936 -6.46491
1 -0.855645 -9.15098 -6.8425
1 8.99633 -3.4372 -7.96413
1 10.0227 -3.37121 -8.1502
1 9.79977 -4.33317 -8.03566
1 10.2632 -4.03238 -7.25826
1 9.41964 -4.34089 -6.99937
1 9.78934 -3.56917 -6.50286
1 10.1365 -4.38649 -6.20686
1 -10.4051 -4.85483 -5.91379
1 -10.4026 -5.83171 -5.77414
1 -10.5644 -6.54288 -5.2067
1 6.45293 2.79125 -0.0955863
1 6.47003 3.45502 0.535178
1 5.53919 3.52611 0.143429
1 5.72317 4.12461 0.979629
1 6.21165 3.55379 1.55468
1 5.4284 3.24628 2.04833
1 4.60951 3.49482 2.51879
1 5.07007 4.33325 2.34986
1 4.4605 4.2921 1.63678
1 4.72498 5.185 1.47691
1 8.22905 -10.198 -4.59049
1 8.31846 -9.20117 -4.62227
1 7.39913 -9.30091 -4.78996
1 7.62307 -8.5489 -5.30146
1 7.06218 -7.7981 -5.33613
1 6.53716 -7.97857 -4.5508
1 7.17663 -7.60112 -4.03039
1 7.74381 -6.8763 -4.16663
1 7.32362 -6.562 -5.00879
1 6.93415 -6.55854 -5.94922
1 -10.5479 3.399 0.389786
1 10.2291 3.07291 1.10485
1 10.1723 4.05516 1.17883
1 10.0544 4.5902 0.413969
1 -10.4765 5.02844 0.316677
1 -10.4979 5.95823 0.33947
1 -9.76806 6.03836 -0.388769
1 -9.58806 6.60765 -1.24906
1 -9.99836 7.47792 -1.04422
1 10.6366 7.40444 -0.447667
1 -3.09598 6.14566 1.3157
1 -3.61568 6.90233 1.54573
1 -3.38712 7.53838 0.930403
1 -2.53162 7.42041 0.430724
1 -2.17279 7.07845 1.25955
1 -1.41289 6.84884 0.777839
1 -1.93335 6.03635 0.800907
1 -1.96766 5.62186 1.57856
1 -1.10375 5.77003 1.99845
1 -1.65911 5.80779 2.90075
1 3.01063 -5.22479 4.32243
1 2.08065 -5.00124 4.26703
1 2.2062 -5.94827 4.45749
1 3.0656 -6.25837 4.75496
1 2.72047 -5.95264 5.58518
1 2.72459 -6.87888 5.66616
1 1.93415 -6.5383 5.24657
1 2.00675 -7.39767 4.98716
1 2.48377 -8.18763 4.92171
1 2.47619 -7.99722 5.80094
1 8.29178 -1.67825 1.12642
1 7.45637 -2.06593 1.45173
1 7.25842 -3.04102 1.26066
1 7.20653 -3.94848 1.41222
1 6.56732 -4.46056 1.86435
1 6.52676 -4.64479 0.897494
1 5.98102 -4.04337 0.286394
1 5.85655 -4.53969 -0.54997
1 5.44338 -5.25568 -1.09728
1 5.99793 -6.03605 -0.644129
1 3.39349 0.242323 -4.55197
1 3.6392 0.365103 -3.65099
1 2.96975 1.03324 -3.86276
1 3.01236 1.41086 -4.74543
1 3.5532 2.01581 -4.194
1 2.75804 2.37669 -3.82077
1 3.29374 3.26003 -3.67778
1 3.94672 3.80485 -4.0073
1 3.58782 4.4432 -4.64018
1 3.37521 4.76489 -3.79495
1 -2.29829 -1.10639 -2.9134
1 -2.73045 -1.90829 -2.5081
1 -3.32972 -1.54507 -1.83743
1 -4.26233 -1.39341 -2.02591
1 -4.93522 -0.872064 -2.36073
1 -4.24336 -0.174963 -2.51173
1 -3.34476 -0.607394 -2.38381
1 -3.06414 -0.170662 -3.194
1 -3.61071 -0.356488 -4.01079
1 -3.23522 -1.10887 -3.53892
1 -5.25206 -7.41026 -1.07734
1 -5.64571 -8.12926 -1.63046
1 -6.58241 -8.36267 -1.71709
1 -6.87619 -7.37718 -1.70443
1 -6.97807 -6.94629 -0.815317
1 -7.89724 -7.20271 -0.560584
1 -7.76279 -6.38837 -1.0305
1 -7.14907 -6.32238 -1.81013
1 -7.10985 -5.80161 -2.62931
1 -7.02595 -4.99956 -2.10279
1 -6.80961 1.32191 8.93851
1 -6.67495 2.27884 9.1709
1 -6.20189 3.10848 9.29459
1 -5.5413 2.48817 9.68443
1 -5.54934 2.39665 10.6683
1 -4.71306 2.27752 -10.2826
1 -4.10756 1.52879 -10.1832
1 -3.9834 0.649947 -9.7918
1 -4.99786 0.590706 -9.67789
1 -5.16557 0.216029 -8.82531
1 -5.28979 -6.25179 3.49774
1 -5.25637 -5.36888 3.94536
1 -4.517 -5.51403 3.34715
1 -4.27293 -6.36275 3.12432
1 -4.50863 -6.97847 2.49946
1 -3.98254 -7.45346 1.85417
1 -4.52444 -6.65752 1.56323
1 -5.23771 -7.27139 1.65665
1 -4.9218 -7.48277 0.813527
1 -5.66212 -7.99502 0.480062
1 3.27729 -0.472262 1.50178
1 3.93521 -0.921323 1.95512
1 3.79419 -1.61266 1.30546
1 3.42306 -2.49095 1.49295
1 4.22284 -2.74737 1.91619
1 5.19469 -2.79578 2.29731
1 4.993 -1.86834 2.04962
1 4.86118 -1.0096 2.39994
1 4.90432 -0.655738 1.51655
1 4.6779 -0.0384286 0.823238
1 -6.09189 -10.5199 -2.7121
1 -6.66649 -10.4343 -1.90812
1 -6.53379 -9.62422 -1.36451
1 -7.39056 -9.1473 -1.39987
1 -7.14188 -9.19981 -0.453869
1 -6.52215 -8.63102 -0.0736551
1 -6.82075 -8.3896 0.776963
1 -7.669 -8.76233 0.314301
1 -8.17569 -8.93525 -0.474568
1 -8.92255 -9.56145 -0.346492
1 6.91503 7.55035 1.13573
1 7.82358 7.8741 1.13302
1 8.53931 8.28156 0.712531
1 8.43348 8.42804 -0.189788
1 7.84024 7.52891 -0.171371
1 6.964 7.14233 0.246394
1 7.00012 6.51737 1.02438
1 6.92155 5.59074 1.27629
1 6.27533 5.61016 0.608716
1 5.67793 5.138 1.15676
1 -0.325869 -4.25424 3.09492
1 -0.573977 -3.36959 2.67948
1 -1.15769 -3.05236 2.02115
1 -1.85645 -3.36633 2.64676
1 -2.12484 -2.4539 2.82678
1 -2.59631 -3.12916 3.33979
1 -3.13884 -3.45018 2.54281
1 -3.97181 -2.94188 2.3179
1 -3.60955 -2.05537 2.39355
1 -3.14671 -1.50511 3.06149
1 -0.75581 3.09754 3.48306
1 -0.595064 3.59135 4.24229
1 -0.511232 4.26632 3.56933
1 -1.35417 3.97086 3.0223
1 -1.78839 3.1311 3.15586
1 -2.64586 2.85849 2.68738
1 -3.46949 2.77088 2.13465
1 -3.54659 3.29164 2.92922
1 -4.33281 2.8493 3.00596
1 -4.90441 2.38496 3.58323
1 3.52258 -9.71821 2.20263
1 3.74715 -10.4078 1.6246
1 3.14478 10.5048 2.37942
1 2.86894 9.63909 2.11977
1 2.93927 10.1146 1.33595
1 2.40564 10.4981 0.555663
1 2.62953 9.61867 0.230686
1 3.22728 10.2274 -0.111455
1 4.14601 10.1906 -0.212704
1 4.25775 10.4481 -1.11518
1 8.63394 -9.02201 4.51428
1 8.9753 -8.69064 5.34197
1 9.58582 -9.39053 5.24894
1 9.83722 -8.50167 5.66371
1 9.32711 -8.82298 6.44416
1 8.38513 -8.77018 6.32476
1 8.09869 -8.10859 5.67701
1 7.8947 -8.95392 5.27459
1 8.43336 -9.68756 5.61729
1 8.92532 -9.85728 6.41549
1 4.45185 1.45375 7.32482
1 5.28253 1.71773 6.92301
1 6.00854 2.0098 6.38918
1 6.22028 1.16575 6.73021
1 6.48238 1.33483 7.6613
1 7.02405 0.821823 8.25302
1 7.97929 0.669785 8.4458
1 7.67558 1.43516 8.90421
1 7.09996 2.08618 9.2472
1 6.55781 1.44197 8.80875
1 0.598063 -10.6771 -6.75705
1 -0.138941 -10.6552 -7.40382
1 0.671036 -10.5402 -7.95702
1 1.66029 -10.4882 -7.90662
1 1.78474 -10.4281 -6.97843
1 2.30404 10.093 -6.90016
1 2.993 9.42506 -6.7309
1 3.1049 9.96108 -7.55409
1 2.78186 10.3911 -8.35464
1 3.34962 -10.2003 -8.43464
1 2.04099 -5.5265 6.35453
1 2.00166 -4.99142 5.52843
1 1.23639 -5.03669 4.97921
1 0.638729 -4.31347 4.76491
1 0.459041 -4.83446 5.55591
1 1.20052 -4.48928 5.99395
1 0.852532 -5.26276 6.5838
1 1.14432 -6.14759 6.47955
1 1.91122 -6.63345 6.32937
1 1.89565 -6.40884 7.21956
1 -8.21344 3.24883 2.72046
1 -7.84467 4.04308 3.07447
1 -8.42513 4.44155 2.30523
1 -8.14478 5.0988 2.93145
1 -7.6355 5.08203 2.08744
1 -7.17785 4.49372 1.42686
1 -6.42028 4.15845 1.00101
1 -6.08454 3.75121 0.186994
1 -6.24778 4.59667 -0.418303
1 -5.58167 4.04773 -0.626594
1 -2.25254 9.27946 0.703286
1 -2.81013 8.54808 0.256254
1 -2.24948 8.20916 1.05171
1 -1.64789 8.28017 1.88191
1 -0.853618 8.4087 1.32499
1 -0.978612 9.30337 0.775023
1 -1.63757 9.34318 1.56649
1 -2.55518 9.49223 1.78043
1 -2.65703 10.1179 2.5096
1 -3.44024 10.6821 2.63885
1 4.39217 9.21332 0.592677
1 5.24949 8.94029 0.266511
1 5.15403 9.88369 0.00924739
1 5.38391 -10.6547 0.529964
1 4.81008 -10.2888 1.23122
1 5.56791 -10.5633 1.83421
1 6.20128 -9.9367 2.21247
1 6.65985 -10.6416 1.8883
1 7.36658 10.0827 1.98332
1 8.23912 10.3555 1.58972
1 -8.14508 3.83809 -2.58682
1 -7.4733 4.32574 -3.02132
1 -7.19507 5.18222 -2.89897
1 -7.57294 5.90875 -3.35383
1 -7.92467 6.78234 -3.70128
1 -7.18076 7.33704 -3.55376
1 -6.92226 6.84573 -2.78239
1 -6.08986 7.23422 -2.55903
1 -5.77619 6.37136 -2.21038
1 -6.31119 5.89405 -2.9008
1 2.13924 -0.649501 0.920534
1 2.00967 -1.62288 0.897557
1 1.44455 -1.94651 0.180394
1 1.1203 -1.18334 0.879031
1 1.24074 -0.232883 0.656033
1 1.37724 -0.103872 1.59066
1 2.28138 0.0521941 1.77739
1 2.31558 -0.363312 2.68865
1 1.9397 -0.889263 1.92582
1 1.06892 -1.18298 2.00948
1 4.03844 -3.56871 -10.2012
1 4.86774 -3.23015 -9.85741
1 5.23678 -4.03344 -9.55177
1 4.67799 -4.74072 -9.7997
1 4.91379 -5.28666 -9.06898
1 4.4336 -4.47795 -8.75348
1 4.03198 -3.68649 -9.14385
1 3.60251 -4.45459 -9.37381
1 2.72039 -4.73419 -9.37166
1 1.7108 -4.72491 -9.65968
1 7.17824 4.50037 1.40573
1 7.34705 3.60044 1.11041
1 8.07543 3.10011 1.44651
1 8.37669 2.88412 2.30279
1 7.48473 2.34872 2.42236
1 7.23667 2.86106 3.18627
1 6.45082 2.9574 3.77848
1 6.15669 2.07298 3.42342
1 5.4664 2.26365 2.85533
1 5.17595 1.32568 3.02093
1 -3.05566 8.58029 1.47095
1 -3.0158 7.70771 1.91764
1 -3.17602 7.48333 2.81147
1 -2.52008 7.70792 3.51565
1 -1.9549 7.67319 2.77211
1 -2.6233 8.45587 2.78105
1 -3.2749 9.11682 2.46585
1 -3.99366 9.15182 1.81769
1 -4.90985 8.91438 1.75071
1 -5.18898 9.83364 1.85607
1 -9.34992 -1.81816 5.42571
1 -8.67989 -1.21875 5.64993
1 -8.71671 -0.49937 4.95825
1 -8.27854 0.328197 4.94838
1 -8.10537 0.974892 4.23587
1 -8.08703 1.03897 3.24967
1 -8.97397 0.83872 3.48654
1 -9.19543 0.249895 4.21608
1 -9.32972 0.374682 5.16533
1 -9.15677 1.31269 4.86085
1 -9.06823 -9.30996 9.92305
1 -9.14388 -9.82991 -10.6355
1 -9.83493 -10.4517 -10.2871
1 -10.3238 10.4274 10.3485
1 -9.43615 10.125 10.2525
1 -9.74919 10.6289 9.49407
1 -9.72098 10.5752 8.49689
1 -10.5508 10.0341 8.63228
1 -10.0655 9.73928 9.45364
1 -10.5154 9.20677 10.1438
1 -3.24792 1.12419 -3.05438
1 -2.26755 0.887096 -3.16001
1 -1.93516 0.650491 -4.04881
1 -1.92455 -0.200652 -3.54101
1 -1.08079 -0.510993 -3.31453
1 -1.40813 -0.471679 -2.41724
1 -2.38579 -0.0688182 -2.43879
1 -2.15389 -0.876459 -1.901
1 -1.54101 -0.240614 -1.38658
1 -1.27366 -1.13835 -1.50274
1 6.27893 -1.70306 -2.88341
1 6.31055 -2.44056 -3.56846
1 5.34621 -2.40144 -3.52181
1 5.40079 -3.23205 -4.00826
1 5.72485 -2.50661 -4.52157
1 5.3776 -1.62697 -4.16916
1 5.32925 -1.1887 -3.3458
1 4.31706 -0.837562 -3.14957
1 4.98284 -0.307911 -2.70612
1 5.87836 -0.351201 -3.12158
1 -7.39713 -3.09393 -4.95577
1 -7.32155 -3.32277 -5.84259
1 -6.68534 -3.65435 -6.52157
1 -7.05697 -2.81118 -6.88829
1 -6.49992 -3.25524 -7.53778
1 -5.97421 -2.43853 -7.4755
1 -5.95497 -2.01685 -8.32281
1 -5.86638 -1.42217 -7.43842
1 -5.5811 -1.54766 -6.47274
1 -5.57354 -0.677647 -6.04207
1 -3.61755 7.27643 7.38442
1 -3.50674 7.86689 6.63906
1 -3.92631 8.23987 7.45361
1 -4.62097 8.10268 8.12209
1 -5.37799 8.43568 7.67994
1 -5.35947 8.35796 6.71971
1 -5.67394 9.05669 6.12582
1 -4.77701 9.09506 6.0528
1 -4.4241 8.20752 6.40815
1 -4.50295 7.38487 6.91563
1 -3.74753 -9.09578 9.11532
1 -4.30219 -9.39614 8.41206
1 -3.80453 -9.78074 7.66081
1 -4.24801 -10.6438 7.86813
1 -3.6131 10.019 7.63911
1 -4.48105 9.97122 7.3679
1 -3.90395 9.23735 6.95501
1 -3.15526 8.97693 6.35652
1 -2.10276 9.07803 6.11743
1 -1.42229 8.55316 6.79856
1 3.53262 -3.82682 -1.0348
1 4.10304 -3.85027 -1.79509
1 3.48604 -4.72354 -1.54614
1 2.84712 -5.47706 -1.66257
1 2.36679 -6.02238 -2.36501
1 2.84672 -6.82711 -2.00583
1 3.32517 -7.65462 -2.28973
1 2.46402 -8.01122 -2.46886
1 2.04393 -7.50539 -1.8332
1 2.09548 -6.71476 -1.31552
1 3.95472 -2.26603 -10.589
1 3.3524 -1.54827 -10.2328
1 3.00186 -1.62535 10.3
1 2.21908 -1.59968 -10.5769
1 2.33323 -0.743372 -10.2847
1 2.55469 -0.326267 -9.45996
1 2.4111 -0.760614 -8.62432
1 3.30212 -0.940418 -8.8437
1 3.89855 -1.64861 -9.08521
1 4.36335 -2.42836 -9.0771
1 10.649 8.89513 1.35192
1 -10.2758 9.68851 1.44389
1 10.2515 10.0667 1.59789
1 10.4139 10.6733 0.907185
1 -10.0974 10.6024 0.481604
1 -9.38367 9.96184 0.887139
1 -9.35444 -10.6597 1.41094
1 -9.20891 9.889 1.83333
1 -9.68896 9.0005 1.91835
1 -10.0625 8.20888 2.16661
1 -3.15291 -3.50056 -10.2208
1 -3.9305 -3.72427 10.693
1 -3.33214 -3.04585 10.2993
1 -3.92597 -2.48964 -10.5561
1 -3.85432 -2.99061 -9.73949
1 -4.67078 -2.97865 -9.19036
1 -4.09928 -2.4992 -8.68833
1 -3.63656 -1.75325 -9.13227
1 -3.52432 -1.68136 -10.1165
1 -3.06499 -2.45137 -9.79916
1 2.76097 0.625404 -10.6832
1 2.8654 -0.24083 10.3488
1 2.90647 -0.249272 9.34203
1 2.72766 -1.27446 9.36068
1 2.49967 -1.3948 8.38742
1 3.11834 -2.12386 8.31104
1 2.29708 -2.39496 8.5521
1 1.63575 -3.14345 8.72813
1 1.13523 -3.47534 8.01984
1 1.26398 -4.2091 8.63489
1 -0.980997 6.63711 5.87365
1 -1.21351 5.73224 6.02991
1 -1.62038 5.50787 6.84068
1 -1.02767 4.84413 6.59081
1 -1.23388 4.00894 7.00802
1 -2.01615 4.04908 6.47207
1 -1.81236 3.18409 6.30367
1 -2.4504 3.49692 5.61739
1 -1.66578 3.41437 5.11563
1 -1.36518 2.58517 5.48136
1 6.94964 8.71 6.59254
1 7.44383 8.84315 7.38466
1 7.4491 9.57006 8.04938
1 7.05458 10.1935 8.74559
1 6.55938 10.6561 9.50182
1 5.88933 -10.2147 9.08604
1 6.02927 -9.33283 8.72788
1 6.43844 -9.41117 9.59541
1 7.37036 -9.4025 9.95072
1 7.82776 -8.97252 9.20796
1 -2.71677 8.69246 -1.49611
1 -2.54354 8.23586 -0.676065
1 -2.35137 7.48218 -1.3008
1 -1.79332 6.98931 -1.92094
1 -1.60155 6.72451 -0.98899
1 -1.6678 5.95405 -1.55406
1 -2.58129 6.28081 -1.24624
1 -3.38081 6.7624 -1.40731
1 -3.59125 5.84438 -1.61689
1 -3.63495 6.40283 -2.43732
1 -4.7257 9.41716 -8.2689
1 -4.50767 8.94581 -9.0951
1 -3.97764 9.53072 -9.62504
1 -4.71066 9.9931 -9.27134
1 -3.86644 10.0753 -8.76455
1 -3.67726 9.22788 -8.33353
1 -3.45151 8.97764 -7.49595
1 -3.68685 9.84108 -7.32301
1 -4.59953 10.0577 -7.38052
1 -4.34332 9.94347 -6.44352
1 -0.463262 7.43647 8.9489
1 -0.554518 7.23936 9.96761
1 0.0967217 6.85072 10.5691
1 -0.783821 6.49632 10.6742
1 -1.31698 7.234 -10.4771
1 -2.26573 7.42013 10.6785
1 -1.79778 7.06569 9.8734
1 -1.85256 6.29611 10.5303
1 -2.26777 5.87376 9.77763
1 -2.40737 4.84917 9.69803
1 -3.71912 2.86492 0.648217
1 -3.97672 2.19421 1.33046
1 -4.60018 1.53664 1.47948
1 -4.93823 1.55897 2.33528
1 -4.00548 1.63616 2.55764
1 -3.95579 1.99816 3.46762
1 -3.51606 1.1436 3.29219
1 -3.03663 0.354262 3.19932
1 -3.50043 -0.315441 2.76469
1 -3.09687 -0.521344 3.58325
1 0.641675 -1.30617 7.22985
1 1.24004 -1.45947 7.99984
1 1.17058 -2.40354 8.08262
1 0.836389 -2.47741 9.01729
1 0.0284821 -2.23927 9.4454
1 0.0714212 -1.93333 10.3867
1 -0.177162 -1.01556 10.4558
1 0.758784 -1.09871 10.1056
1 1.08626 -0.834086 -10.4091
1 1.0728 -0.838226 -9.51444
1 -3.77515 -9.99052 -9.76432
1 -4.47951 -9.82568 -10.3955
1 -4.52496 -8.95511 -10.041
1 -5.06814 -8.31852 -10.6101
1 -5.1836 -9.12625 10.3254
1 -4.8035 -8.71082 9.51864
1 -5.72499 -8.55707 9.2886
1 -6.28163 -7.75224 9.31692
1 -5.39908 -7.56593 8.95049
1 -5.12371 -6.67914 9.04671
1 0.550713 2.55022 10.6873
1 1.09751 2.22006 -9.96092
1 1.93124 1.82857 -9.81377
1 1.7433 1.8811 10.6587
1 1.30597 1.58944 9.83008
1 2.26991 1.5243 9.75848
1 2.42184 0.558974 9.73842
1 1.78662 0.384237 9.00455