units 		lj
dimension 	3

#atom_style	bond
# if there are angular potentials, use next line
atom_style	angle
angle_style	cosine

read_data t1.2p0.0n8000npt.lmp
  orthogonal box = (-10 -10 -10) to (10 10 10)
  2 by 2 by 2 MPI processor grid
  reading atoms ...
  8000 atoms
  reading velocities ...
  8000 velocities
  scanning bonds ...
  1 = max bonds/atom
  scanning angles ...
  1 = max angles/atom
  reading bonds ...
  7200 bonds
  reading angles ...
  320 angles
  2 = max # of 1-2 neighbors
  2 = max # of 1-3 neighbors
  4 = max # of 1-4 neighbors
  6 = max # of special neighbors
  special bonds CPU = 0.000823975 secs
  read_data CPU = 0.09409 secs

pair_style	lj/cut	2.5
#when using global * * the cutoff should be the smallest of all possible pairs
pair_coeff	* *	1.0 1.0 2.5  #final 2.5 is redundant here; can override global
pair_modify	shift	yes

bond_style	fene
bond_coeff	1	30 1.5		1.0 1.0
special_bonds fene
  2 = max # of 1-2 neighbors
  6 = max # of special neighbors
  special bonds CPU = 0.000357151 secs

angle_coeff 	1 ${k}
angle_coeff 	1 50

fix	1	all npt	temp 1.2 1.2 1.0   iso 0.0 0.0 5.0
#starting temperature/ending Temperature/Tdamp
fix cmvel all momentum 1000 linear 1 1 1

thermo_style custom step ke pe etotal epair ebond eangle press temp lx vol
thermo 1000

dump 1 all xyz	100000	dump{$k}.xyz
dump 1 all xyz	100000	dump{50}.xyz

restart 1000 t1.2p0.0n8000npt-1.res 0.5p0.0n8000npt-2.res

#run_style respa 2 3 bond 1 pair 2
#timestep 0.006

timestep 0.002

run 10000000
Neighbor list info ...
  update every 1 steps, delay 10 steps, check yes
  max neighbors/atom: 2000, page size: 100000
  master list distance cutoff = 2.8
  ghost atom cutoff = 2.8
  binsize = 1.4, bins = 15 15 15
  1 neighbor lists, perpetual/occasional/extra = 1 0 0
  (1) pair lj/cut, perpetual
      attributes: half, newton on
      pair build: half/bin/newton
      stencil: half/bin/3d/newton
      bin: standard
WARNING: Inconsistent image flags (../domain.cpp:785)
Per MPI rank memory allocation (min/avg/max) = 6.496 | 6.516 | 6.649 Mbytes
Step KinEng PotEng TotEng E_pair E_bond E_angle Press Temp Lx Volume 
       0   0.48448444    14.197408    14.681893   -5.6481987    18.329377    1.5162301   -1.5880033   0.32303001           20         8000 
    1000    1.1403338     13.80815    14.948484    -4.969832    18.507021   0.27096076   0.26118058   0.76031755    20.420441    8515.2098 
    2000    1.3341906    14.067941    15.402132   -4.7053551    18.586343   0.18695319   0.26681872   0.88957162     20.64015    8793.0295 
    3000     1.549868    14.339928    15.889796   -4.4483784    18.641666    0.1466403   0.31062385    1.0333745    20.879743    9102.8093 
    4000     1.738889    14.594904    16.333793   -4.2269205    18.700233   0.12159134   0.22960736    1.1594043    21.128041    9431.4338 
    5000    1.8526521    14.764491    16.617143    -4.044257    18.711819  0.096928785   0.10445507    1.2352558     21.34018    9718.3877 
    6000    1.8319673    14.834679    16.666646   -3.9709938    18.726829  0.078843379  -0.16207538    1.2214642    21.460679    9883.9466 
    7000    1.7915009    14.809808    16.601309   -3.9793258     18.71519  0.073943979   0.16683438    1.1944832    21.430679    9842.5544 
    8000    1.8146484    14.750643    16.565291   -4.0304796    18.717089   0.06403367 -0.073099292    1.2099168    21.388871    9785.0624 
    9000    1.8057449    14.790483    16.596228   -4.0020706    18.733225  0.059328467  0.058594683    1.2039805    21.418181    9825.3432 
   10000    1.7908666     14.81623    16.607097   -3.9663821    18.729149  0.053463021  0.056797102    1.1940603    21.449318    9868.2575 
   11000    1.8129312    14.778666    16.591597   -3.9986688    18.723306  0.054028548 0.0027411849    1.2087719    21.426479    9836.7677 
   12000    1.7907391    14.778312    16.569051   -4.0086078    18.736554  0.050365515 -0.019372137    1.1939753    21.405715    9808.1975 
   13000    1.7934066    14.762735    16.556141    -4.029902     18.73751  0.055126671  0.026286322    1.1957539    21.379551     9772.277 
   14000     1.787571    14.766172    16.553743   -4.0037961    18.723789  0.046179012 -0.086161361     1.191863    21.385247     9780.089 
   15000    1.7927786     14.78435    16.577129   -3.9804622    18.712665  0.052147807   0.08244704    1.1953351    21.442181    9858.4095 
   16000    1.8227189    14.808849    16.631568   -3.9710345    18.734388  0.045495508   0.12632653    1.2152978    21.425263    9835.0934 
   17000    1.7588019    14.791107    16.549909   -3.9860555    18.724996  0.052166246  0.076635376    1.1726812     21.43735    9851.7477 
   18000    1.7840212    14.795485    16.579506   -3.9948641    18.743615   0.04673409 -0.074157365    1.1894962    21.412855    9818.0165 
   19000    1.8128859    14.798982    16.611868   -3.9958864    18.742366  0.052503043  -0.15071218    1.2087417    21.432095    9844.5047 
   20000    1.7805687    14.788866    16.569434   -4.0121408    18.750543  0.050463105   0.13774788    1.1871942    21.402707     9804.064 
   21000    1.7976617    14.771045    16.568706   -4.0157411    18.734106  0.052680303 -0.048834118     1.198591    21.415882    9822.1798 
   22000    1.8310187    14.784308    16.615326   -3.9745535    18.706778  0.052082932  0.044542616    1.2208317    21.452007    9871.9694 
   23000    1.8152825     14.80851    16.623793   -3.9529583    18.713889  0.047579525  -0.11126511    1.2103397    21.488017    9921.7668 
   24000    1.8020276    14.781057    16.583085   -4.0002672    18.729118  0.052206471 0.0052091117    1.2015019    21.418037    9825.1459 
   25000    1.7949582    14.760661    16.555619   -4.0243024    18.735101  0.049862923   -0.2035088    1.1967884    21.408841    9812.4952 
   26000    1.8047769    14.771013     16.57579   -4.0064013    18.727019     0.050395    0.1006442     1.203335    21.416436    9822.9418 
   27000    1.8047677    14.807582     16.61235   -3.9895205    18.748165  0.048938273 -0.0014287834    1.2033289    21.427406    9838.0449 
   28000    1.8106767    14.771405    16.582082   -4.0077048    18.727065  0.052044821  -0.21908129    1.2072687    21.421681    9830.1607 
   29000    1.7799768    14.750245    16.530222   -4.0238788    18.733407  0.040716363 -0.0070331015    1.1867996    21.382112     9775.788 
   30000    1.7904087     14.77181    16.562219   -4.0077954    18.733318  0.046286895  0.061431278     1.193755    21.419407    9827.0308 
   31000    1.8036149    14.815552    16.619167   -3.9781728    18.745835  0.047889809  0.032592849    1.2025603    21.435277    9848.8907 
   32000    1.7906294    14.801637    16.592267   -3.9809285    18.737163  0.045402858 -0.018312097    1.1939022    21.433531     9846.484 
   33000    1.7909709    14.772299     16.56327   -3.9968349    18.720902   0.04823192  -0.12723822    1.1941299    21.414335    9820.0511 
   34000    1.8091404    14.772197    16.581338   -4.0112955    18.733095  0.050397944  -0.18934215    1.2062444    21.404041    9805.8966 
   35000    1.8014236    14.790273    16.591696   -3.9811786    18.728458  0.042993572 -0.072970865    1.2010992    21.460875    9884.2171 
   36000    1.8261217    14.774337    16.600458   -3.9976005    18.721187  0.050750363   0.27836646    1.2175666    21.409258     9813.069 
   37000    1.7869921    14.774929    16.561921   -3.9754589    18.704001  0.046387312 -0.048161691     1.191477    21.443461    9860.1762 
   38000    1.8287244     14.75679    16.585515   -4.0040394    18.711664  0.049165899 -0.020234601     1.219302    21.412904    9818.0829 
   39000    1.7990372    14.793451    16.592488   -3.9792391    18.720381  0.052308627 -0.0019022247     1.199508    21.459681    9882.5676 
   40000    1.8230731    14.811843    16.634916   -3.9759498    18.741335  0.046458273 -0.0036748242     1.215534    21.456907    9878.7358 
   41000    1.8051157    14.794551    16.599667     -3.97996    18.729659  0.044851737  0.041552777    1.2035609    21.447332    9865.5165 
   42000     1.789269    14.760881     16.55015   -4.0018459    18.717412  0.045315434   0.28208211    1.1929951    21.395281    9793.8622 
   43000    1.7888504    14.790673    16.579524   -3.9714856     18.71054  0.051618973   0.14489063     1.192716    21.441485      9857.45 
   44000     1.820504    14.804304    16.624808   -3.9710247    18.726643  0.048685519 -0.017928415    1.2138211     21.45727     9879.237 
   45000    1.8148526     14.79175    16.606602    -3.972527    18.720895  0.043382079 -0.0085444976     1.210053    21.476747    9906.1641 
   46000    1.8126466     14.73855    16.551197   -4.0373038    18.729164  0.046689698 -0.016614047    1.2085821    21.371812    9761.6682 
   47000    1.8037398    14.737129    16.540869   -4.0275747    18.721537  0.043167271 -0.071905686    1.2026436    21.408197    9811.6099 
   48000    1.8205487     14.75342    16.573968   -4.0259058    18.734577  0.044748908   0.12835932    1.2138509    21.395674    9794.4018 
   49000    1.7944253    14.775705    16.570131   -4.0144654    18.742574  0.047596469   -0.1590175    1.1964331    21.416888     9823.564 
   50000    1.8303469    14.778066    16.608413   -3.9984651    18.726719  0.049811717 -0.065518587    1.2203838    21.418783    9826.1728 
   51000    1.7962432     14.79468    16.590923   -3.9804694    18.728008  0.047141524   0.11775659    1.1976452     21.43301    9845.7664 
   52000    1.7712383    14.767769    16.539007   -3.9870532    18.708563  0.046258598 -0.0062472475    1.1809732     21.40335    9804.9471 
   53000    1.7995155    14.745799    16.545314   -4.0280599     18.72151  0.052349018 -0.067466716     1.199827    21.374133    9764.8491 
   54000    1.8194398    14.768866    16.588306   -3.9938903    18.716267   0.04648924 -0.023846754    1.2131115    21.412766    9817.8932 
   55000    1.8020008    14.827797    16.629798   -3.9494917    18.726772  0.050517506 -0.0032312363    1.2014841    21.482741     9914.461 
   56000    1.8178846    14.800828    16.618712   -3.9698811    18.726429  0.044279334     0.114196    1.2120746    21.435639    9849.3897 
   57000    1.7935679    14.776278    16.569846   -3.9946093    18.728845  0.042042755   0.18654461    1.1958614     21.43124    9843.3268 
   58000    1.7944438    14.802425    16.596869   -3.9868453    18.738475  0.050795488  -0.21443398    1.1964454    21.442589    9858.9729 
   59000    1.8279929     14.79471    16.622703   -3.9780076    18.726322  0.046396032   -0.1751377    1.2188143    21.452678    9872.8949 
   60000    1.8006602    14.781063    16.581724   -4.0045174    18.736442  0.049138735 -0.015943445    1.2005902    21.406506    9809.2854 
   61000    1.7798277    14.787295    16.567122   -3.9853721    18.729529  0.043137429  0.067744739    1.1867002    21.430039    9841.6718 
   62000    1.8171537    14.813038    16.630192   -3.9728932    18.739566  0.046365326  0.066736957    1.2115872    21.459496    9882.3115 
   63000    1.8244614    14.785341    16.609802   -3.9798554    18.716109  0.049086847 -0.063154444    1.2164596    21.451697    9871.5411 
   64000    1.8099025    14.748127    16.558029   -4.0335374    18.730886    0.0507783 -0.025537765    1.2067525    21.382009     9775.647 
   65000    1.7898375     14.75485    16.544688   -4.0155115    18.721823  0.048538264 -0.0088411706    1.1933741    21.383023    9777.0376 
   66000    1.8170632    14.781838    16.598901   -3.9886947    18.725348  0.045185234 -0.024862379    1.2115269    21.447627    9865.9237 
   67000    1.8072662    14.783984    16.591251   -3.9928442    18.730797  0.046032027 0.0070964155    1.2049948    21.423521    9832.6945 
   68000    1.7979772    14.750066    16.548043   -4.0136361    18.718589  0.045112338 -0.098678568    1.1988013    21.417394    9824.2606 
   69000     1.820221    14.790707    16.610928   -3.9994369    18.741681   0.04846326 -0.057276588    1.2136324    21.418418      9825.67 
   70000    1.7889701    14.812014    16.600984   -3.9713434    18.731883  0.051474636  -0.11953212    1.1927958    21.453649    9874.2367 
   71000    1.7881249      14.7519    16.540025   -4.0243026    18.725625   0.05057807   0.12027552    1.1922323    21.377821    9769.9041 
   72000    1.7875244    14.786463    16.573988    -3.981613    18.722686  0.045390465  0.054631833    1.1918319    21.435523     9849.229 
   73000    1.8241824    14.761503    16.585686    -4.007392    18.723059  0.045836692  0.041969053    1.2162736    21.399764    9800.0197 
   74000     1.786943    14.777728    16.564671   -3.9845659    18.714851  0.047442379  -0.16026644    1.1914443    21.431285    9843.3893 
   75000    1.8241634    14.751529    16.575692   -4.0049106    18.709207   0.04723314 -0.060683613     1.216261    21.416135    9822.5284 
   76000     1.786321    14.786213    16.572534   -3.9936697    18.732147   0.04773627 0.0070901238    1.1910295    21.416547    9823.0953 
   77000    1.8176425      14.7998    16.617443   -3.9811538    18.731823   0.04913177  0.016506873    1.2119132    21.423454    9832.6029 
   78000     1.792887    14.800182    16.593069   -3.9843523    18.734718   0.04981659 -0.054807682    1.1954074    21.453376    9873.8599 
   79000    1.7884372    14.742043     16.53048   -4.0223879     18.71817  0.046261341  0.063756218    1.1924405    21.372448      9762.54 
   80000    1.7891296    14.764276    16.553406    -4.010223    18.726188  0.048311584  0.099300536    1.1929022    21.400516    9801.0536 
   81000    1.8004549     14.78427    16.584725   -3.9880424    18.724658  0.047655111  -0.17843057    1.2004533    21.435404    9849.0658 
   82000     1.812222    14.761643    16.573865    -4.005647     18.72128  0.046009235 -0.055318772     1.208299    21.424813    9834.4739 
   83000    1.7892937    14.762152    16.551446   -4.0025354    18.714818  0.049869041 -0.036737287    1.1930116    21.393399    9791.2772 
   84000    1.7965915    14.772792    16.569384   -3.9997003    18.729161  0.043331958   -0.1328159    1.1978774    21.429961    9841.5644 
   85000    1.7882278    14.796553    16.584781   -4.0013594    18.747518  0.050394129  0.053758613    1.1923009    21.433192     9846.016 
   86000    1.8117289    14.771114    16.582843   -4.0081911    18.733786  0.045518664  0.039934177    1.2079703    21.404606     9806.674 
   87000    1.7902765    14.737132    16.527409   -4.0349169    18.723686  0.048363256   0.14569155    1.1936669    21.358101    9742.8929 
   88000    1.7801971    14.775477    16.555674   -3.9989419    18.725988  0.048430775   0.13599505    1.1869464    21.414577    9820.3846 
   89000    1.8101779     14.79528    16.605458   -3.9814128     18.72865  0.048042642 -0.057575978    1.2069361    21.452236    9872.2851 
   90000    1.8013033     14.76571    16.567013   -4.0085123    18.726564  0.047658577 -0.090343352     1.201019     21.40553    9807.9436 
   91000    1.7839528    14.780075    16.564028   -4.0033211    18.730862   0.05253404  0.078768741    1.1894505    21.418401     9825.646 
   92000    1.8124353    14.778847    16.591283   -3.9966269    18.728262  0.047212222   0.12740777    1.2084412    21.417997    9825.0902 
   93000      1.80796    14.762662    16.570622   -4.0074065    18.724721  0.045348171  0.010130235    1.2054573     21.40755    9810.7205 
   94000    1.8184417    14.755625    16.574067   -4.0069617    18.713322  0.049265346 -0.021037985     1.212446    21.417778    9824.7891 
   95000    1.8146291    14.788674    16.603303   -3.9819235     18.72461  0.045986967  -0.11728277     1.209904    21.448531    9867.1716 
   96000     1.783984    14.775989    16.559973    -3.992701    18.716514   0.05217671  0.047997767    1.1894714    21.416499    9823.0285 
   97000    1.7818061    14.722189    16.503996   -4.0402449    18.717977  0.044457548 -0.051736311    1.1880193    21.361764    9747.9057 
   98000    1.8035464    14.753811    16.557357   -4.0286166    18.736574  0.045852911 -0.083343111    1.2025146    21.388368    9784.3713 
   99000    1.8174035    14.781894    16.599298   -3.9714541    18.708693  0.044655743 -0.022535114    1.2117538    21.438132    9852.8268 
  100000    1.7989246    14.777886     16.57681   -4.0053394    18.731692  0.051533567   -0.0363806     1.199433    21.403415    9805.0369 
  101000    1.7968678    14.754091    16.550958   -4.0127575    18.714729  0.052119068   0.02271435    1.1980616    21.402065    9803.1815 
  102000    1.8161784    14.784353    16.600532   -3.9957572    18.733322   0.04678888  0.017287113     1.210937    21.444095    9861.0505 
  103000    1.7982208     14.80032    16.598541   -3.9898738    18.743714  0.046480098  0.039097785    1.1989638    21.433103    9845.8941 
  104000    1.7990959    14.772309    16.571405   -3.9891841     18.71328  0.048212712  0.015875195    1.1995472    21.409244     9813.049 
  105000    1.7676753    14.803198    16.570874   -3.9745816    18.731312  0.046468299  -0.11669136    1.1785975    21.466018    9891.3244 
  106000    1.8220982     14.79303    16.615128   -3.9899829     18.73316  0.049852004  -0.15315492     1.214884    21.417204    9823.9994 
  107000    1.7923492    14.787268    16.579617   -3.9901655    18.730926  0.046507717   0.22192279    1.1950488    21.407322    9810.4077 
  108000    1.8084276    14.741549    16.549976   -4.0379767    18.731204  0.048320941  -0.10684262    1.2057691    21.388283    9784.2556 
  109000    1.7975742    14.771438    16.569012   -3.9967227    18.720472  0.047688183 -0.040690219    1.1985326    21.411637    9816.3412 
  110000    1.7821089    14.812384    16.594493   -3.9821744    18.749134  0.045424867   0.12770068    1.1882211    21.424091    9833.4795 
  111000    1.7822677    14.766012     16.54828   -4.0043523    18.722285  0.048079394  -0.15960008     1.188327     21.41679    9823.4289 
  112000    1.7966109    14.801403    16.598014   -3.9747766    18.731289  0.044890455  0.098464211    1.1978903     21.41557     9821.751 
  113000    1.8097363    14.790618    16.600354    -3.975533    18.720054  0.046096709   0.22282071    1.2066417     21.42543    9835.3235 
  114000    1.7858721     14.77225    16.558122   -4.0066606    18.729293  0.049617338 0.0035247833    1.1907303    21.418884    9826.3111 
  115000    1.7954342    14.775274    16.570708    -4.003782    18.731458  0.047597433   0.23041838    1.1971058    21.393593    9791.5435 
  116000    1.7778927    14.806562    16.584455   -3.9770721    18.739428  0.044205466 -0.054274017      1.18541    21.448103    9866.5798 
  117000    1.7973867    14.793837    16.591223   -3.9834098    18.731662    0.0455847  0.013020136    1.1984076    21.432319    9844.8138 
  118000    1.8105236    14.772049    16.582573   -4.0065429    18.734053  0.044539256  -0.02025275    1.2071666    21.387082    9782.6069 
  119000    1.7804844    14.752391    16.532876   -4.0240143    18.727654  0.048751011  -0.17033122     1.187138     21.40296    9804.4114 
  120000    1.8222097     14.77542     16.59763   -4.0007064    18.731457  0.044669456 -0.052912747    1.2149583    21.415244    9821.3019 
  121000    1.7903846    14.781692    16.572077   -3.9931934    18.726468  0.048417375 -0.058399226    1.1937389    21.434036    9847.1802 
  122000     1.817534     14.77351    16.591044   -4.0002913    18.726288  0.047513588 -0.0019978034    1.2118408    21.429244    9840.5768 
  123000    1.8022887    14.804261     16.60655   -3.9624406    18.715729  0.050972666  0.027571694     1.201676    21.449248    9868.1603 
  124000    1.8051215    14.743779    16.548901   -4.0125697    18.709938  0.046410608 -0.077114987    1.2035648    21.388258    9784.2207 
  125000    1.7947026    14.760946    16.555648   -4.0150177     18.73392  0.042042828  -0.15564114     1.196618    21.401169    9801.9505 
  126000    1.8211832    14.787554    16.608737   -4.0007351    18.743695  0.044593951 -0.052085084    1.2142739    21.421736    9830.2366 
  127000    1.7920549    14.799862    16.591917   -3.9755157    18.730258  0.045119258  -0.26313086    1.1948526    21.452288    9872.3566 
  128000    1.8063017     14.77317    16.579471   -4.0244134    18.751175  0.046408129  0.066697455    1.2043516    21.385516    9780.4578 
  129000    1.7755538    14.769576     16.54513   -4.0001361    18.720828  0.048884538    0.1016302    1.1838505    21.412538      9817.58 
  130000    1.8158689    14.774405    16.590274    -3.995598    18.721408  0.048595018   0.10244107    1.2107306    21.401116    9801.8769 
  131000     1.791311    14.792806    16.584117   -3.9763051    18.721503  0.047607801 -0.025791395    1.1943566    21.442183    9858.4132 
  132000     1.798441    14.782819     16.58126   -3.9883803    18.723843  0.047356086  0.010545842    1.1991105    21.419857    9827.6499 
  133000    1.7988286    14.729813    16.528642   -4.0313698    18.712912  0.048271502 -0.053628157     1.199369    21.398392    9798.1346 
  134000    1.8233025    14.757924    16.581226   -4.0059484    18.721688  0.042183795   -0.1122056     1.215687    21.415381    9821.4904 
  135000    1.7989468    14.788332    16.587279    -3.986226    18.728552  0.046005571  0.092641729    1.1994478    21.434291    9847.5312 
  136000    1.8117829    14.782704    16.594487   -4.0019822    18.730875  0.053810916  -0.13707992    1.2080063    21.427045    9837.5476 
  137000     1.800639    14.745322    16.545961   -4.0166203    18.720026  0.041916059    -0.083983    1.2005761     21.39335    9791.2099 
  138000    1.7831756    14.738975     16.52215   -4.0282871    18.719123  0.048139159 -0.077933996    1.1889324    21.359882      9745.33 
  139000    1.8142566    14.766598    16.580855   -4.0130093     18.73205  0.047557473  0.039921162    1.2096556    21.391776    9789.0499 
  140000    1.8034253    14.773709    16.577134    -3.994047     18.71929  0.048465293  -0.10886859    1.2024339    21.440591    9856.2177 
  141000     1.798916    14.794326    16.593242   -4.0001932    18.740913  0.053605861  0.064568784    1.1994272    21.412491    9817.5156 
  142000    1.7998371    14.773744    16.573581   -3.9964865    18.724554  0.045676268  0.050236899    1.2000414     21.41642    9822.9202 
  143000    1.7894286    14.774244    16.563673   -4.0034205    18.731167  0.046497589   0.28357663    1.1931015    21.394989    9793.4614 
  144000     1.803386    14.777209    16.580595   -3.9817398    18.715831  0.043118563  0.019050531    1.2024077    21.416059    9822.4242 
  145000     1.824202    14.796873    16.621075   -3.9710334    18.719092  0.048814721  -0.28112063    1.2162867    21.452573      9872.75 
  146000    1.8204074    14.746878    16.567285   -4.0183105    18.720779  0.044409355 -0.083230651    1.2137566    21.393814    9791.8482 
  147000    1.7760957    14.763583    16.539679   -4.0158258    18.734982   0.04442698 -0.044950368    1.1842118    21.383698    9777.9634 
  148000    1.8240927    14.768712    16.592805   -4.0012414    18.721407  0.048546699 -0.030008691    1.2162138    21.427579    9838.2834 
  149000    1.7764266    14.821926    16.598353   -3.9645581    18.739463  0.047021642 -0.035704134    1.1844325     21.46006    9883.0905 
  150000    1.7977485    14.781786    16.579535   -3.9828219    18.722947  0.041660894  -0.24214076    1.1986488    21.435154    9848.7205 
  151000    1.8120705    14.768762    16.580833   -3.9961441    18.720194  0.044712275   0.18398021     1.208198    21.408826    9812.4744 
  152000    1.7925489    14.776672    16.569221   -3.9946913    18.725443  0.045920463   0.10096443     1.195182    21.416993    9823.7093 
  153000    1.8008362    14.721781    16.522617   -4.0360197     18.71089  0.046910389 -0.0020401348    1.2007076    21.368676    9757.3717 
  154000    1.8107091    14.746353    16.557063     -4.00528    18.708527  0.043106605  0.063764968    1.2072903    21.409794    9813.8066 
  155000    1.8116008    14.747092    16.558693   -4.0223557    18.719917  0.049530631  -0.18624462    1.2078849    21.395532    9794.2072 
  156000    1.7907049    14.800566    16.591271   -3.9850704    18.737515  0.048121665  -0.17884272    1.1939525    21.448237    9866.7653 
  157000    1.8135688     14.78567    16.599239   -3.9977051    18.733046  0.050329433 -0.060429836     1.209197    21.429825    9841.3775 
  158000    1.7869685    14.770413    16.557382   -4.0109234    18.733928  0.047408775 -0.002169151    1.1914613    21.394766    9793.1552 
  159000    1.8058237    14.746276    16.552099    -4.016674    18.715688  0.047262069 -0.027603729     1.204033    21.418153    9825.3047 
  160000    1.8103085    14.776156    16.586464   -4.0098924    18.739023  0.047025521  -0.14467955    1.2070232    21.407246    9810.3028 
  161000    1.7922806    14.791709     16.58399   -3.9812096    18.724282  0.048637003 -0.034153823    1.1950031    21.440328    9855.8543 
  162000    1.7958293    14.795525    16.591354   -4.0057906    18.751295  0.050020616   -0.1337662    1.1973692    21.414165    9819.8181 
  163000    1.7643124    14.777699    16.542011   -3.9961916    18.726451    0.0474398  0.014596545    1.1763553    21.425275    9835.1093 
  164000    1.8197562    14.775509    16.595265   -4.0127151    18.743475  0.044749377 0.0014084763    1.2133225    21.371353    9761.0397 
  165000     1.772536     14.78875    16.561286   -3.9770688    18.719559  0.046259776 -0.079655959    1.1818384    21.447858    9866.2419 
  166000    1.8146331    14.794741    16.609374   -3.9893873    18.734724  0.049404044  0.033655115    1.2099066    21.428873     9840.065 
  167000    1.8052487     14.79099    16.596239   -3.9795443    18.724635  0.045899451 -0.0064475578    1.2036496    21.448269    9866.8096 
  168000    1.7895322    14.778725    16.568257   -3.9923094    18.724454  0.046580491 -0.053114168    1.1931706    21.419596    9827.2917 
  169000    1.8149101    14.720994    16.535904   -4.0385878    18.712721  0.046860946 -0.017559202    1.2100914    21.375494    9766.7138 
  170000    1.7769454     14.81654    16.593485   -3.9695988    18.735931  0.050208041  -0.15647244    1.1847783    21.441651    9857.6789 
  171000    1.7998062     14.82066    16.620466   -3.9715272    18.736239  0.055947612 -0.041980085    1.2000208    21.460266    9883.3757 
  172000    1.7968915    14.780124    16.577016   -3.9962487    18.731498  0.044875239   0.12102718    1.1980774    21.420326    9828.2956 
  173000    1.7841523    14.770092    16.554244   -4.0079592    18.726238   0.05181301   0.15073221    1.1895836    21.396948     9796.152 
  174000    1.8132163     14.78154    16.594756   -3.9844694    18.717753  0.048256904 -0.069751302     1.208962    21.437484    9851.9327 
  175000    1.8143451    14.788183    16.602528   -3.9757867    18.717642  0.046327554   0.22571239    1.2097146    21.430725    9842.6167 
  176000    1.7924193    14.784816    16.577235   -3.9894552    18.727049  0.047221735  -0.20738997    1.1950956    21.426867     9837.303 
  177000    1.7854179    14.772279    16.557697   -3.9961661    18.719483  0.048962441  0.019289382    1.1904274    21.423763    9833.0273 
  178000    1.8255053    14.780163    16.605668   -4.0120089    18.746465  0.045707149   0.02333449    1.2171557    21.400824    9801.4759 
  179000    1.7786922    14.789531    16.568223   -3.9964032    18.735682  0.050251813  -0.24344289     1.185943    21.448586    9867.2468 
  180000    1.8255556    14.757704     16.58326   -4.0082847    18.718875  0.047114284  0.063149698    1.2171892    21.403111    9804.6189 
  181000    1.7840917    14.758986    16.543077   -4.0055868    18.721624  0.042948377  -0.14460187    1.1895432    21.431594    9843.8148 
  182000    1.8111406    14.777653    16.588793   -4.0143943    18.744899  0.047148027  -0.13677491     1.207578    21.389277    9785.6191 
  183000    1.7684944    14.796389    16.564883   -3.9687827    18.715714  0.049458074    0.1027249    1.1791436    21.446078    9863.7862 
  184000    1.8211577    14.790448    16.611606   -4.0005565    18.743383  0.047621937  0.030108396    1.2142569    21.423687    9832.9234 
  185000    1.7783892    14.789742    16.568131   -3.9822995    18.727023  0.045018204   0.16561471     1.185741    21.438683    9853.5859 
  186000    1.8464863    14.757069    16.603556   -4.0151295    18.724618  0.047580433    0.1902932    1.2311447    21.392741    9790.3743 
  187000    1.7817385    14.797107    16.578846   -3.9752619    18.723577  0.048791757 -0.036610311    1.1879742    21.451589    9871.3926 
  188000    1.8224763    14.796248    16.618725   -3.9709438    18.719819   0.04737327  -0.12199473    1.2151361    21.453082    9873.4539 
  189000    1.8247189    14.805135    16.629854   -3.9734103    18.732203  0.046341899  -0.16297641    1.2166314    21.463429    9887.7461 
  190000    1.8036676    14.771967    16.575635   -4.0097682    18.732845  0.048890769  0.053018326    1.2025954    21.414051    9819.6609 
  191000    1.8073836    14.752982    16.560366   -4.0076201    18.718868  0.041733648 0.0027918932    1.2050731     21.42194    9830.5182 
  192000    1.8303019    14.776617    16.606919   -4.0046756    18.734184  0.047108865  0.047781366    1.2203538    21.399408    9799.5302 
  193000    1.7908329    14.765381    16.556214   -4.0142665    18.733321  0.046326729 -0.090598606    1.1940378    21.410869    9815.2849 
  194000    1.8042109    14.759303    16.563514   -4.0224084    18.733567  0.048144619  0.012976298    1.2029576    21.367535    9755.8089 
  195000    1.7821213    14.731913    16.514034    -4.017129    18.705719  0.043323339 -0.045562778    1.1882294    21.392583    9790.1569 
  196000    1.7960665    14.767406    16.563472   -3.9992409    18.722233  0.044414205 -0.095810665    1.1975274    21.414932    9820.8724 
  197000    1.7986805    14.797159    16.595839   -3.9820557    18.734713  0.044501075  0.033694794    1.1992703    21.438171    9852.8801 
  198000    1.8221712    14.772211    16.594382   -3.9998453    18.728424  0.043632041  -0.13222928    1.2149327    21.427128    9837.6623 
  199000    1.7880222    14.768609    16.556631    -4.012502    18.731939  0.049171847   -0.1331168    1.1921638    21.395474    9794.1265 
  200000    1.8207448    14.757551    16.578296   -4.0140536    18.726997  0.044607232  0.045435476    1.2139816    21.397337    9796.6859 
  201000    1.7457596    14.789238    16.534997    -3.987542    18.731553  0.045226356   0.17767829    1.1639852    21.425343    9835.2035 
  202000     1.802073    14.774147     16.57622    -3.997312    18.722663  0.048796153  0.040981555    1.2015322    21.407958     9811.281 
  203000    1.8042094     14.78599      16.5902   -3.9863772    18.727293  0.045074788 -0.031128179    1.2029567    21.445658    9863.2064 
  204000    1.8054956    14.818159    16.623654   -3.9705511    18.742538  0.046172027 -0.053919201    1.2038142    21.467896    9893.9216 
  205000    1.8040543    14.773025    16.577079   -4.0090993    18.734373  0.047750774 -0.020828335    1.2028532    21.407484      9810.63 
  206000    1.7894112    14.791646    16.581058   -3.9734994    18.720217  0.044928989   0.12457046      1.19309    21.439885    9855.2436 
  207000    1.8324862    14.803492    16.635978   -3.9825291    18.740717  0.045304577 -0.020757537    1.2218102    21.456477    9878.1419 
  208000     1.799039    14.790485    16.589524   -3.9887594    18.734441  0.044802718  -0.19282556    1.1995093     21.42789    9838.7119 
  209000    1.7875096     14.78355     16.57106   -4.0023914    18.734912  0.051030246  0.027548537     1.191822    21.415837    9822.1176 
  210000    1.8107672    14.756461    16.567229   -4.0216334    18.729906  0.048189192  -0.02896723    1.2073291    21.385319    9780.1882 
  211000     1.811761     14.72809    16.539851   -4.0307939    18.719232  0.039652397  -0.37246082    1.2079917    21.394767    9793.1562 
  212000    1.8197046    14.762906    16.582611   -4.0126311    18.729201  0.046336406   0.11415913     1.213288    21.384957    9779.6909 
  213000    1.8077572     14.82283    16.630587    -3.951837    18.732538  0.042129046   -0.1971424    1.2053221    21.489647     9924.025 
  214000     1.798476    14.818644     16.61712   -3.9699088    18.743272  0.045281006  -0.10815088    1.1991339    21.443997    9860.9156 
  215000    1.7747721    14.784628      16.5594   -3.9937693    18.734029  0.044368338  0.072807466    1.1833293    21.410413    9814.6577 
  216000    1.8096604    14.769125    16.578785   -3.9943886    18.720575  0.042938258  0.010727479    1.2065911    21.421056    9829.3013 
  217000       1.8207     14.78638     16.60708   -3.9844121    18.725665  0.045127382 -0.007185773    1.2139518    21.463378    9887.6756 
  218000    1.8215986     14.77244    16.594039   -3.9922519    18.719538  0.045153919 -0.030612996    1.2145509    21.425722    9835.7254 
  219000    1.7994661    14.754073    16.553539   -4.0229028    18.733089  0.043887111   0.11839791    1.1997941    21.389651    9786.1329 
  220000    1.7801154    14.760113    16.540229   -4.0105616    18.723619  0.047056052 -0.006409813     1.186892    21.385827    9780.8849 
  221000    1.8325031    14.757987     16.59049    -4.008647    18.725424  0.041209685  -0.09310342    1.2218214    21.406139    9808.7805 
  222000     1.809747    14.769338    16.579085    -3.993911    18.716078  0.047170939  -0.13945095    1.2066489    21.441348    9857.2611 
  223000    1.8213569      14.7746    16.595957   -4.0107678    18.742924  0.042443365 -0.044258149    1.2143897    21.399278    9799.3519 
  224000    1.7809664     14.79183    16.572796   -3.9779496     18.72363  0.046149375 -0.031931648    1.1874593    21.447465    9865.7005 
  225000    1.8066849    14.772905     16.57959   -4.0139409    18.746226  0.040619546 0.0054200929    1.2046072    21.386873    9782.3198 
  226000    1.7829407    14.740262    16.523203   -4.0329172    18.727963  0.045216213  -0.11030217    1.1887758    21.389729    9786.2393 
  227000    1.8128745    14.738067    16.550942   -4.0185655    18.714269  0.042363683   0.11169662    1.2087341    21.394294     9792.507 
  228000    1.8173747    14.774168    16.591543   -4.0090144    18.736346  0.046836412 -0.0092425398    1.2117346    21.400387    9800.8758 
  229000    1.8011019      14.7716    16.572702   -4.0032028    18.727316  0.047486507 -0.030197543    1.2008847     21.43688    9851.1003 
  230000    1.8497067     14.78903    16.638737   -4.0026539    18.744798  0.046885621 0.0050843602    1.2332919    21.397437    9796.8235 
  231000    1.7902525    14.806111    16.596364   -3.9594745    18.721517   0.04406819  -0.05914018    1.1936509    21.471856    9899.3972 
  232000    1.8272809     14.74362      16.5709   -4.0184046    18.713077  0.048947494  -0.13726263    1.2183396    21.377189    9769.0376 
  233000    1.7896942    14.740826     16.53052   -4.0303868    18.725134  0.046078876   0.11737839    1.1932786    21.378398    9770.6956 
  234000    1.8198106    14.755799    16.575609   -4.0077276    18.716327  0.047198957 -0.056122807    1.2133587    21.415317    9821.4021 
  235000    1.7671999    14.816512    16.583712   -3.9686955    18.731446  0.053760896 -0.0087534925    1.1782805     21.43437    9847.6397 
  236000     1.815286    14.783091    16.598377   -3.9961457    18.732919  0.046318432 -0.0066120028     1.210342    21.417952     9825.028 
  237000    1.7457527     14.79839    16.544143   -3.9736638     18.72759   0.04446385  -0.07266707    1.1639806    21.456446    9878.0982 
  238000    1.8158572    14.765133    16.580991   -4.0009529    18.718529  0.047557047  0.047962477    1.2107228     21.39234    9789.8235 
  239000    1.7904913    14.779966    16.570457    -3.987208    18.719582  0.047591933  -0.20152071    1.1938101    21.451702    9871.5484 
  240000    1.8272683    14.771009    16.598277   -3.9871114    18.712926  0.045193899  -0.11762048    1.2183311    21.434458    9847.7611 
  241000    1.7974192    14.783525    16.580944   -3.9854145    18.721975  0.046964656  0.046626546    1.1984293     21.42685    9837.2794 
  242000    1.7893238    14.753201    16.542525   -3.9992595    18.705413  0.047048033  0.013710982    1.1930316    21.404381    9806.3639 
  243000    1.7685047    14.750152    16.518657   -4.0379965    18.741766  0.046382989   0.32816813    1.1791505    21.344694    9724.5565 
  244000    1.7983889    14.748713    16.547101    -4.013906    18.717381  0.045237973  0.048448523    1.1990758    21.389464    9785.8758 
  245000    1.7903257    14.789243    16.579569   -3.9854621    18.729192  0.045513188 -0.020388701    1.1936997    21.418847     9826.261 
  246000    1.8188984    14.809495    16.628394   -3.9737725    18.737865  0.045402437  0.035011481    1.2127506    21.439895    9855.2574 
  247000    1.8032666    14.790951    16.594218   -3.9782217    18.718462  0.050711412  -0.24848368     1.202328    21.473502     9901.674 
  248000    1.8003988    14.753984    16.554383   -4.0188351    18.724203  0.048615481    0.1163564    1.2004159    21.391986    9789.3376 
  249000    1.7790172    14.794282    16.573299   -3.9894538    18.739531   0.04420416   0.27386217    1.1861597    21.400873    9801.5431 
  250000    1.8091444     14.78212    16.591264   -3.9756685    18.713124  0.044664949   0.13039728     1.206247     21.43136    9843.4917 
  251000    1.8103951    14.772964    16.583359   -4.0105676      18.7366  0.046931717  0.068823972     1.207081    21.391523    9788.7023 
  252000    1.7865878    14.741102     16.52769   -4.0310099    18.728784  0.043327416 -0.0090811579    1.1912075    21.373431    9763.8866 
  253000    1.7909723    14.769203    16.560175   -4.0193515    18.742971  0.045583147  -0.20454426    1.1941308    21.380527    9773.6152 
  254000    1.8315404    14.769952    16.601493   -4.0048659    18.726259  0.048559752  -0.10064572    1.2211795    21.419547    9827.2244 
  255000    1.8171899    14.800785    16.617975   -3.9803387    18.737242  0.043881218 -0.096370123    1.2116114    21.457001    9878.8658 
  256000    1.8032555    14.781235    16.584491   -3.9871376    18.720796  0.047577092   0.14669732    1.2023207    21.424221    9833.6583 
  257000    1.7899018    14.756078     16.54598   -4.0011748    18.707908  0.049344802 -0.068387695     1.193417    21.417193    9823.9843 
  258000    1.8118402    14.722119     16.53396   -4.0518944    18.722129  0.051885061  0.041832305    1.2080445    21.346141    9726.5348 
  259000     1.794583    14.789718    16.584301   -3.9801913    18.717645  0.052264359   0.22496622    1.1965382    21.419846    9827.6355 
  260000    1.7997153    14.803752    16.603467   -3.9752446     18.73276  0.046236345  0.033884557    1.1999602    21.431805    9844.1048 
  261000    1.7742064    14.768875    16.543082   -3.9932828     18.71847  0.043688409   0.11595567    1.1829521    21.424169    9833.5863 
  262000    1.7983825    14.772231    16.570614   -4.0053912    18.728329  0.049293594  0.030941367    1.1990716    21.414088    9819.7118 
  263000      1.80817    14.772638    16.580808   -3.9949913    18.719432  0.048197603  0.038897501    1.2055974    21.411459    9816.0956 
  264000    1.8107523    14.760215    16.570967   -4.0118796    18.725904  0.046190227  -0.12013825    1.2073191    21.427799    9838.5863 
  265000    1.8118168    14.811871    16.623688   -3.9744431    18.738965   0.04734825   0.21425473    1.2080289    21.437991    9852.6313 
  266000    1.8005692    14.796656    16.597225   -3.9793868    18.726974  0.049068776 -0.052429372    1.2005295    21.458246    9880.5853 
  267000    1.7947564    14.777943    16.572699   -3.9975222    18.727957  0.047508211   0.19951205    1.1966538    21.387387     9783.026 
  268000    1.7548967    14.762826    16.517723   -4.0003345    18.721129  0.042032195  -0.07738763    1.1700774    21.428397    9839.4104 
  269000    1.8252724    14.738663    16.563935    -4.033129     18.73025  0.041541511   0.26734329    1.2170004    21.374642    9765.5457 
  270000    1.7587329    14.793218     16.55195   -3.9805888    18.727746   0.04606004  -0.15641392    1.1726352    21.426073    9836.2089 
  271000    1.8208254    14.787576    16.608401   -3.9788143    18.717904  0.048486026  -0.27293768    1.2140354    21.441568    9857.5651 
  272000    1.7853787    14.810919    16.596298   -3.9647424     18.73214  0.043521654 -0.042230267    1.1904012    21.453306    9873.7624 
  273000     1.793444    14.733989    16.527433    -4.018263    18.705502  0.046750074    0.2081609    1.1957788    21.362181    9748.4763 
  274000    1.7779401     14.76196      16.5399   -4.0090663    18.728064  0.042961824  -0.20580857    1.1854416    21.407804    9811.0703 
  275000    1.8214195    14.768446    16.589865   -4.0105751    18.727915    0.0511063  -0.24606905    1.2144315     21.42089    9829.0723 
  276000    1.7668416    14.780217    16.547059   -3.9990575     18.73058  0.048694479    0.2171822    1.1780416    21.397257    9796.5766 
  277000    1.8278035    14.762469    16.590273   -4.0232084    18.735485  0.050192118 -0.019739243     1.218688    21.372533    9762.6563 
  278000    1.7917406    14.785702    16.577443   -3.9872339    18.726141  0.046795678   0.05023888    1.1946431    21.423601    9832.8047 
  279000    1.8053787    14.792088    16.597467   -3.9880568    18.734785  0.045359461   0.16135477    1.2037363    21.425624    9835.5907 
  280000    1.7980233    14.783059    16.581082   -3.9831127    18.721848  0.044323472 -0.039878046    1.1988321    21.437485    9851.9335 
  281000    1.8197068    14.735976    16.555683   -4.0200187    18.710512   0.04548244   0.09292687    1.2132895    21.380435    9773.4892 
  282000    1.7463267     14.77587    16.522196   -3.9937071    18.723122  0.046455055 -0.099002056    1.1643634    21.447336    9865.5213 
  283000    1.8090106    14.786649     16.59566   -3.9918357     18.73033  0.048154597     0.125873    1.2061579    21.410253    9814.4366 
  284000    1.7903746    14.776039    16.566414   -3.9806008    18.711472   0.04516828 -0.013245032    1.1937323    21.433446     9846.366 
  285000     1.804546    14.764994     16.56954    -4.008045    18.726624  0.046414738  0.085163919     1.203181    21.399237    9799.2962 
  286000    1.8022022     14.79013    16.592332   -3.9833563     18.72314  0.050346106  0.050786051    1.2016184    21.427839    9838.6413 
  287000    1.8158742    14.776793    16.592667   -3.9988714    18.729679  0.045985257  0.037274188    1.2107342    21.423126    9832.1512 
  288000    1.7869928    14.763891    16.550884   -4.0004128     18.71753  0.046774358   -0.1728935    1.1914775     21.42842    9839.4421 
  289000    1.8048101    14.775559     16.58037    -4.019315    18.746282  0.048592075   0.24688932    1.2033572    21.375295    9766.4418 
  290000    1.8010709    14.762323    16.563394   -4.0008806    18.720733  0.042471248 -0.042984972    1.2008641    21.409412    9813.2805 
  291000    1.7919609    14.786172    16.578133   -3.9871085    18.727183  0.046098063  -0.10068882      1.19479    21.410704    9815.0568 
  292000    1.7856104    14.768241    16.553851   -4.0161989    18.734415  0.050024354   0.13637976    1.1905557    21.394615    9792.9482 
  293000    1.7923103    14.754097    16.546407   -4.0207662    18.727789  0.047074006  0.038121671    1.1950229    21.381409    9774.8243 
  294000    1.7878124    14.805548     16.59336    -3.975497    18.734855  0.046189393  0.054712717    1.1920239    21.433522    9846.4713 
  295000    1.8041378    14.784425    16.588563   -3.9986179    18.736272  0.046771737  0.048116745    1.2029089    21.409155    9812.9276 
  296000    1.7886789    14.745761     16.53444   -4.0101047    18.710079  0.045787068   0.12482113    1.1926017    21.412758    9817.8823 
  297000      1.81448    14.767484    16.581964   -4.0142519    18.732186  0.049549796 -0.055326287    1.2098046    21.406914    9809.8457 
  298000    1.8158889    14.760834    16.576723   -3.9959409    18.710585  0.046190101 -0.0018769331    1.2107439    21.438105    9852.7896 
  299000    1.8372289     14.79968    16.636909   -3.9834542    18.735661  0.047473186   0.10688312    1.2249724    21.440886    9856.6244 
  300000    1.8246395    14.798134    16.622773   -3.9797998    18.736424  0.041509841  0.097725025    1.2165784     21.45372    9874.3345 
  301000    1.7897973    14.781915    16.571712   -4.0090641    18.743878  0.047101342  -0.20758991    1.1933474    21.410992     9815.454 
  302000    1.8048617    14.759345    16.564207   -4.0091766     18.71924  0.049281764  0.058990868    1.2033916    21.404573    9806.6276 
  303000    1.8225128     14.79943    16.621943    -3.968612    18.723807  0.044234864 -0.077840748    1.2151604    21.455871    9877.3044 
  304000    1.7906094    14.790242    16.580851   -3.9899747     18.73352  0.046696032 -0.057508347    1.1938889    21.424216    9833.6518 
  305000     1.807889    14.772081     16.57997   -3.9915534    18.716458  0.047175479   0.13816805      1.20541      21.4133    9818.6275 
  306000    1.7911828    14.756048    16.547231   -4.0257186    18.740575  0.041191185 -0.028547758    1.1942712    21.393682    9791.6665 
  307000    1.7752966    14.765391    16.540688   -4.0200204    18.740146  0.045265651   0.23858576     1.183679     21.38317    9777.2397 
  308000    1.7936055    14.776747    16.570352   -4.0038109    18.735863  0.044694466  -0.14331647    1.1958865    21.440199    9855.6764 
  309000    1.8091441    14.805917    16.615061   -3.9799282    18.737173  0.048671791  0.070170305    1.2062468    21.434781    9848.2064 
  310000    1.7932857    14.801733    16.595019   -3.9742594    18.731799  0.044193459 -0.083828211    1.1956733     21.46203    9885.8134 
  311000    1.8081624     14.78641    16.594573   -3.9935007    18.730364  0.049546763  0.043542512    1.2055923    21.410989    9815.4486 
  312000    1.7993477    14.760899    16.560246   -4.0076057    18.721028  0.047476656  0.016428763    1.1997151    21.394218    9792.4018 
  313000    1.8053421    14.751665    16.557007   -4.0027615    18.705988   0.04843811 0.0043180578    1.2037119    21.412348    9817.3188 
  314000     1.801767    14.804573     16.60634   -3.9905403    18.747283  0.047830737 0.0026513965    1.2013282    21.410365    9814.5917 
  315000    1.7745543    14.806502    16.581057   -3.9798095    18.739256  0.047056117  0.041361183    1.1831841    21.433163    9845.9769 
  316000    1.8197884    14.767879    16.587668   -4.0019014    18.724897  0.044883697  -0.13762509     1.213344    21.414518    9820.3037 
  317000    1.7913624    14.761675    16.553037   -4.0075124    18.719787  0.049400373 -0.0059300788    1.1943909    21.431059    9843.0771 
  318000     1.809388    14.773891    16.583279   -4.0135587    18.743639  0.043811211   0.18542252    1.2064094     21.39226    9789.7144 
  319000    1.7939695    14.806047    16.600016   -3.9726338    18.730472  0.048208571  -0.17154143    1.1961292    21.475042    9903.8048 
  320000    1.8303077    14.812967    16.643275   -3.9694467     18.73362   0.04879412 -0.022469209    1.2203577    21.464229    9888.8525 
  321000    1.7951216     14.79555    16.590672   -3.9840148    18.729523  0.050041573   0.21217447    1.1968973    21.430613    9842.4634 
  322000    1.8052062    14.759382    16.564589   -4.0103778    18.720256  0.049504149  -0.12612069    1.2036212    21.389839    9786.3904 
  323000    1.7830602    14.731265    16.514326   -4.0410384    18.723185  0.049119305  -0.22877596    1.1888554    21.387819    9783.6186 
  324000    1.8063059     14.74987    16.556176   -4.0224893    18.727537  0.044822171   0.10151547    1.2043544     21.38868    9784.7997 
  325000    1.8084696       14.786    16.594469   -3.9957487    18.733475  0.048273542   0.16137019    1.2057971    21.406985    9809.9443 
  326000    1.8202979    14.787251    16.607549   -3.9920075    18.729876  0.049382747  -0.14818053    1.2136836    21.458437     9880.849 
  327000    1.8183235    14.754451    16.572775   -4.0176341    18.722947  0.049138458   0.18108045    1.2123672    21.374833    9765.8083 
  328000    1.7925329    14.752516    16.545049   -4.0038404    18.711664  0.044692605 -0.046275111    1.1951713    21.404068    9805.9337 
  329000    1.8197157    14.769495    16.589211   -4.0039462    18.727965  0.045476786   0.12958944    1.2132955    21.405031    9807.2582 
  330000    1.7712115    14.816699    16.587911   -3.9658094    18.733125  0.049383416   0.21648617    1.1809553    21.462575    9886.5655 
  331000    1.8088718    14.785612    16.594484    -3.982254    18.718988  0.048878372  0.039908366    1.2060653    21.426759    9837.1537 
  332000    1.7783744    14.762596    16.540971   -4.0205116    18.735045  0.048062576  -0.19375653    1.1857311     21.40543    9807.8063 
  333000    1.7747431     14.75455    16.529293   -4.0243133    18.732904  0.045959012  0.081785813      1.18331     21.35265    9735.4353 
  334000    1.7976147    14.801959    16.599574   -3.9729693    18.733085    0.0418432   0.12894105    1.1985596    21.435426    9849.0957 
  335000    1.8084341    14.776827    16.585261   -4.0089483    18.743722  0.042053525  -0.11919865    1.2057735    21.420762    9828.8957 
  336000    1.7929779    14.769581    16.562559   -4.0146122    18.736317  0.047876238  -0.19315913     1.195468    21.411471    9816.1123 
  337000    1.8195182    14.793862     16.61338   -3.9956738    18.740967  0.048568916 -0.091592491    1.2131637    21.424749    9834.3855 
  338000    1.7785224    14.781995    16.560517   -3.9970889    18.733937  0.045145992  0.025807427    1.1858299    21.416052    9822.4138 
  339000    1.7937386    14.759194    16.552933    -4.016105    18.730785  0.044514253 -0.095200194    1.1959752    21.404646    9806.7287 
  340000    1.8212677    14.775728    16.596995   -4.0027639    18.732449  0.046042283 0.0090078068    1.2143302    21.403792    9805.5551 
  341000    1.7931884    14.791244    16.584433   -3.9926399    18.737484  0.046400485 -0.036836408    1.1956084     21.41947    9827.1176 
  342000    1.8039005    14.778322    16.582223   -3.9875254    18.719839  0.046008126 -0.076279165    1.2027507    21.429989    9841.6024 
  343000    1.8006419    14.796712    16.597354   -3.9842872    18.734301  0.046697914   0.14126405     1.200578    21.416071    9822.4396 
  344000    1.7910063    14.783764    16.574771   -3.9744788    18.714958  0.043284905 0.0078164436    1.1941534    21.451095    9870.7098 
  345000    1.8056377    14.806833    16.612471   -3.9778559    18.738747  0.045942051  0.029920181    1.2039089    21.436767    9850.9449 
  346000    1.8101699    14.810034    16.620204   -3.9818747    18.743804  0.048104651 -0.012665874    1.2069308    21.442907    9859.4117 
  347000    1.8038348    14.750784    16.554619   -4.0143797    18.718269  0.046894524  0.029438606    1.2027068    21.391295    9788.3887 
  348000    1.7994672    14.777889    16.577356    -3.997041    18.728272  0.046657222  -0.10830503    1.1997948    21.415914    9822.2238 
  349000    1.8099681    14.778118    16.588086    -3.992744    18.724866   0.04599551 0.0064446504    1.2067962    21.426405    9836.6661 
  350000    1.8230784    14.771702     16.59478   -4.0125139     18.73675   0.04746546  0.035029997    1.2155375    21.414285    9819.9833 
  351000    1.7981168    14.769989    16.568105   -4.0249701    18.745926  0.049032472 0.0080955303    1.1988944     21.37897    9771.4792 
  352000    1.7866545    14.765726     16.55238   -4.0131459    18.729696  0.049175719   0.12976141    1.1912519    21.390301    9787.0252 
  353000    1.8302767    14.767383     16.59766   -4.0043608    18.726529  0.045214898 -0.0061758726     1.220337    21.396581    9795.6468 
  354000    1.7796579    14.788385    16.568043   -3.9796191    18.723694  0.044310086  0.025613187     1.186587    21.450325    9869.6474 
  355000    1.7831438    14.762804    16.545948   -4.0231509    18.742593  0.043361446  0.064452091    1.1889112    21.386733    9782.1282 
  356000    1.8046344    14.748897    16.553532   -4.0254752     18.73182  0.042553038 -0.067204182      1.20324     21.38284    9776.7877 
  357000    1.7992392    14.791142    16.590381   -3.9885201    18.733337  0.046324792  0.025487442    1.1996428    21.437904    9852.5112 
  358000    1.8342424    14.812782    16.647025   -3.9741628    18.740012  0.046933459  0.038175347    1.2229811    21.437418    9851.8411 
  359000    1.7853047    14.824508    16.609813   -3.9554766    18.724792  0.055192109  -0.16066151     1.190352    21.494715    9931.0479 
  360000    1.8318596    14.753118    16.584978   -4.0194935    18.723867   0.04874545  -0.13969595    1.2213924    21.388449    9784.4823 
  361000      1.78584    14.756306    16.542146   -4.0216056    18.732515  0.045396579   0.11042085    1.1907089    21.363599    9750.4191 
  362000    1.8169774    14.741951    16.558929   -4.0366805    18.733786  0.044846131  0.010061775    1.2114697    21.369879    9759.0202 
  363000    1.8197608    14.801533    16.621294   -3.9854474     18.74292   0.04406032  -0.22578771    1.2133255    21.439709    9855.0008 
  364000    1.7976475    14.787256    16.584904   -3.9895651    18.732753  0.044068223  0.070482942    1.1985815    21.417959    9825.0381 
  365000    1.7906428    14.778256    16.568898   -4.0073795    18.732484  0.053151442  0.047898177    1.1939111    21.393768    9791.7851 
  366000    1.7683906    14.756059    16.524449   -4.0089991    18.719546  0.045511558 -0.0038174963    1.1790744    21.393974    9792.0675 
  367000    1.8311099    14.747135    16.578245    -4.021168    18.723477  0.044826216 0.0063915765    1.2208926    21.380525    9773.6123 
  368000    1.7921855    14.797689    16.589874   -3.9816783    18.732608  0.046758692   0.10273266    1.1949397    21.438835    9853.7954 
  369000    1.8251988    14.796554    16.621753   -3.9831117    18.734248  0.045418348 0.0012165365    1.2169513    21.430554    9842.3816 
  370000    1.8076778    14.771685    16.579363   -3.9979572    18.723398  0.046244462   0.11360666    1.2052692    21.398537    9798.3338 
  371000    1.7722609    14.764308    16.536569   -4.0115245    18.734258  0.041574888  0.068924881     1.181655    21.375964    9767.3586 
  372000    1.8005481    14.760742     16.56129   -4.0078775     18.72005  0.048569399 0.0079293213    1.2005155    21.402431    9803.6848 
  373000    1.8068092    14.779403    16.586212   -3.9988988    18.731053  0.047248596 -0.0097123954    1.2046901    21.408882    9812.5524 
  374000    1.7656561    14.771001    16.536657    -3.993882    18.715999  0.048883526   -0.0782846    1.1772512    21.423233    9832.2981 
  375000    1.8070224     14.75679    16.563813   -4.0113977    18.722882  0.045305419   0.20884246    1.2048322    21.365569    9753.1156 
  376000    1.7883458    14.775444     16.56379   -3.9811375    18.710237  0.046344782 -0.091564984    1.1923796    21.451843    9871.7427 
  377000    1.8166299    14.776193    16.592823   -3.9973165    18.727028  0.046481979  0.033165503     1.211238    21.403858    9805.6455 
  378000    1.7790879    14.772684    16.551772   -4.0078608    18.736108  0.044437445 -0.013762603    1.1862068    21.415446    9821.5809 
  379000    1.8211028    14.764957     16.58606   -4.0187144    18.734981   0.04869056   0.12300024    1.2142203    21.372608    9762.7587 
  380000    1.7925859    14.815826    16.608412   -3.9685836    18.734016  0.050394095  -0.25268526    1.1952067    21.469836    9896.6036 
  381000    1.8291776    14.784699    16.613877   -3.9944081    18.730138  0.048969261  -0.12588951    1.2196042    21.445277    9862.6804 
  382000    1.7974501    14.762658    16.560108   -4.0035881    18.718992  0.047254509   0.11298368    1.1984498    21.403002    9804.4686 
  383000    1.7852253    14.775128    16.560354   -3.9967734    18.720781  0.051120611   0.19844076     1.190299    21.402699    9804.0528 
  384000    1.8226662     14.78278    16.605446   -3.9954266    18.734401  0.043805387   0.15280512    1.2152627    21.425638    9835.6103 
  385000    1.7911797    14.759122    16.550301   -4.0250784    18.738066  0.046133814  0.028113376    1.1942691    21.393508    9791.4269 
  386000    1.7947664    14.763829    16.558596   -4.0039104     18.72115  0.046589405  -0.10070125    1.1966605    21.411819    9816.5914 
  387000    1.8328193    14.757894    16.590713   -4.0063901    18.716107  0.048177472  0.023198489    1.2220323    21.426307    9836.5316 
  388000    1.7951693    14.795343    16.590513   -3.9926182    18.739357  0.048604487  0.055346241    1.1969291    21.433985    9847.1095 
  389000    1.7919042    14.738086    16.529991   -4.0241585    18.713922  0.048322799  -0.14752261    1.1947521    21.381993    9775.6259 
  390000    1.7824963    14.762737    16.545233   -4.0167728    18.732598  0.046911915  0.061227452    1.1884794    21.386806    9782.2283 
  391000    1.7963379    14.782542     16.57888   -3.9794229    18.714603  0.047361984 -0.099440527    1.1977083    21.457193    9879.1306 
  392000    1.8115579    14.802694    16.614252   -3.9702499    18.723947  0.048996563 -0.0021247938    1.2078562    21.433009    9845.7638 
  393000    1.8034782    14.775561    16.579039   -4.0002572    18.726756  0.049062416 -0.034914361    1.2024691    21.425221    9835.0353 
  394000    1.7920097    14.787558    16.579568   -3.9943174    18.736575  0.045300209   0.16861287    1.1948225    21.402221    9803.3951 
  395000    1.7916122    14.771589    16.563201    -4.000344    18.723552  0.048380596  0.080611051    1.1945575    21.431159    9843.2156 
  396000    1.8006699    14.792229    16.592899   -3.9953545    18.740976  0.046607735 -0.065639952    1.2005967    21.399666    9799.8847 
  397000    1.7865521    14.769317    16.555869   -3.9930897    18.719184  0.043223195  -0.09031688    1.1911836    21.438613    9853.4889 
  398000    1.8249036    14.751469    16.576372   -4.0247181    18.727819  0.048367643  0.027005757    1.2167545    21.374604    9765.4946 
  399000    1.7640761    14.791545    16.555621   -3.9816139      18.7251  0.048059267  -0.20888423    1.1761977     21.45868    9881.1849 
  400000    1.8093501    14.796789    16.606139   -3.9791984    18.728737  0.047249606 -0.074633495    1.2063842    21.452072    9872.0595 
  401000    1.8150169    14.776649    16.591665   -3.9921384    18.719963  0.048824328  -0.10237249    1.2101626    21.418026    9825.1299 
  402000    1.8026358    14.726497    16.529132   -4.0471419     18.72908  0.044558051   0.10487303    1.2019074    21.336869    9713.8659 
  403000    1.7721668    14.748769    16.520935   -4.0103362    18.714081  0.045023767  -0.10272375    1.1815922    21.421086    9829.3427 
  404000     1.803947     14.78763    16.591577   -4.0063644    18.749377  0.044617344  -0.12009373    1.2027817    21.421514    9829.9318 
  405000     1.781038    14.782876    16.563914   -3.9951239    18.734151  0.043849263  -0.10629054    1.1875071    21.405521    9807.9309 
  406000    1.8118561    14.775922    16.587778   -4.0023306    18.735643  0.042609761    0.1090255    1.2080551    21.425804    9835.8381 
  407000    1.8074921    14.777226    16.584718   -3.9967866    18.732548  0.041463953  0.026091167    1.2051454     21.41518    9821.2137 
  408000    1.7822344    14.778292    16.560526    -4.003578    18.734164  0.047705659 -0.057644684    1.1883048    21.412196    9817.1091 
  409000    1.7974372    14.760147    16.557584   -4.0174049    18.723581  0.053970831 -0.062099868    1.1984413    21.396912    9796.1024 
  410000    1.7871804    14.801041    16.588221   -3.9610794    18.714378  0.047742014 -0.0031370693    1.1916025    21.461144    9884.5883 
  411000    1.8135794    14.790903    16.604482   -3.9969942    18.741417  0.046480184 -0.053117636    1.2092041     21.41391    9819.4677 
  412000    1.8046419     14.76363    16.568272   -4.0063824    18.722825  0.047187274  -0.10829608     1.203245    21.420982    9829.1988 
  413000    1.8014022    14.783019    16.584421   -3.9900441    18.722979  0.050084402 -0.048216856     1.201085    21.418221    9825.3991 
  414000    1.8262518    14.800838     16.62709   -3.9780393    18.730958  0.047919803  0.051582362    1.2176534    21.452514    9872.6686 
  415000    1.7885806    14.817242    16.605822   -3.9669058    18.734695  0.049452373   0.02946574    1.1925361    21.474288    9902.7614 
  416000    1.8100528    14.780452    16.590505   -3.9961848    18.729223  0.047413948  0.040878241    1.2068527    21.440535    9856.1397 
  417000     1.821743    14.744519    16.566262   -4.0144689    18.713846  0.045141538 0.0038369363    1.2146472    21.403264    9804.8296 
  418000    1.7937701    14.758984    16.552754   -4.0053985    18.717625  0.046756825  0.091538691    1.1959962    21.419575     9827.262 
  419000    1.8139428    14.773921    16.587864   -3.9987813    18.724067  0.048635005 -0.065248571    1.2094464    21.406174    9808.8289 
  420000    1.8008368    14.807386    16.608223   -3.9626226    18.723887  0.046121484  -0.19816312     1.200708    21.486306    9919.3974 
  421000    1.8313094    14.805471     16.63678   -3.9815258    18.736555  0.050441665 0.0039748342    1.2210255    21.436285    9850.2795 
  422000    1.7974514    14.773451    16.570902   -4.0037616    18.732898  0.044314854  0.072271713    1.1984508    21.395568    9794.2558 
  423000    1.7952856    14.758417    16.553702   -4.0024244    18.716453  0.044387758  0.033166978    1.1970067     21.39266    9790.2634 
  424000    1.8107459    14.795128    16.605874   -3.9889238    18.737285  0.046767325 -0.0073927333    1.2073149    21.451178    9870.8248 
  425000    1.8412934    14.832602    16.673895   -3.9687908    18.756788  0.044604074  -0.15925331    1.2276824    21.451075    9870.6832 
  426000    1.7953366    14.813385    16.608722   -3.9647188    18.725673  0.052430809  -0.15902432    1.1970407    21.473237     9901.307 
  427000    1.8114255    14.770188    16.581614   -4.0105202    18.730596  0.050111974 -0.058284102     1.207768    21.413433    9818.8111 
  428000    1.7994023    14.735075    16.534477   -4.0396727    18.725451  0.049296096  0.016821591    1.1997515    21.392655    9790.2563 
  429000    1.8299112    14.765548    16.595459   -4.0067365    18.723974  0.048310684  0.096828482    1.2200933    21.403152    9804.6751 
  430000    1.7844988    14.799515    16.584014   -3.9678861     18.72234  0.045061622 0.0016563864    1.1898146     21.45247    9872.6078 
  431000     1.797793    14.777596    16.575389   -4.0018924    18.733404  0.046084315  -0.14548973    1.1986785    21.409171    9812.9498 
  432000     1.803495    14.770987    16.574481   -3.9985813    18.723877   0.04569102  0.022499526    1.2024803    21.418944    9826.3935 
  433000    1.7812542    14.804444    16.585698   -3.9786252    18.731273  0.051796714 -0.079958058    1.1876512    21.444873    9862.1237 
  434000    1.8099186    14.786298    16.596217   -3.9932991    18.729009  0.050588671 -0.047248734    1.2067633    21.427039    9837.5398 
  435000    1.7989286     14.76803    16.566959   -4.0052049    18.722144  0.051090587    -0.133105    1.1994357    21.420399    9828.3964 
  436000    1.8243724    14.744137    16.568509   -4.0163038    18.713496  0.046944669   -0.1354091    1.2164003    21.414292    9819.9926 
  437000    1.7999053    14.819392    16.619297   -3.9686605    18.739799  0.048253553 -0.092331767    1.2000869    21.470243    9897.1672 
  438000    1.8329929    14.787433    16.620426   -3.9941712    18.733461  0.048143657  0.043313762     1.222148    21.441844    9857.9444 
  439000    1.7883739    14.773411    16.561785   -4.0039191     18.72912  0.048209517  0.098410597    1.1923983    21.409641    9813.5953 
  440000    1.8093454    14.759913    16.569258    -4.002925    18.715525  0.047312531  -0.16190264     1.206381    21.412346    9817.3159 
  441000    1.8117239    14.794103    16.605827   -3.9715336    18.718464  0.047172025 -0.065011318     1.207967    21.452296    9872.3681 
  442000    1.8003689    14.793447    16.593816   -3.9784374    18.722712  0.049172634  -0.10408513     1.200396    21.434271    9847.5037 
  443000    1.8221504    14.744239    16.566389   -4.0320056    18.729264  0.046980427  0.049549214    1.2149188    21.369858    9758.9907 
  444000    1.7799462    14.801222    16.581168   -3.9801543    18.735742  0.045634305  0.098082036    1.1867791     21.43594    9849.8036 
  445000    1.8101214    14.770951    16.581072   -4.0059804    18.726779  0.050151722   0.29349581    1.2068985    21.379895    9772.7478 
  446000    1.7980734    14.750612    16.548685   -4.0314638    18.732703  0.049372992  0.097674507    1.1988654    21.381282    9774.6497 
  447000    1.8064758    14.768173    16.574649   -4.0125892    18.731382  0.049379994   -0.1054006    1.2044678    21.401003    9801.7227 
  448000    1.8161664    14.791751    16.607917   -3.9931016    18.736686  0.048166325  -0.17281918     1.210929    21.440033    9855.4471 
  449000     1.786269    14.751316    16.537585   -4.0185547    18.717008  0.052862637  -0.13404486    1.1909948    21.413783    9819.2924 
  450000    1.8108504    14.746549    16.557399   -4.0290502    18.725258  0.050340984  0.074649964    1.2073845    21.373943    9764.5877 
  451000    1.8219273    14.791046    16.612973   -3.9899317    18.733632  0.047345441 -0.028326945    1.2147701    21.448989    9867.8029 
  452000    1.7992285    14.823654    16.622883   -3.9631023    18.738731  0.048025914  -0.20357371    1.1996356    21.462255    9886.1239 
  453000    1.7844898    14.781305    16.565795    -4.003069     18.73283  0.051543671  0.019065807    1.1898086    21.405009    9807.2275 
  454000    1.8093069    14.766306    16.575613   -3.9906207    18.709778  0.047149149   0.02446201    1.2063554    21.418671    9826.0177 
  455000    1.8079219    14.821858     16.62978   -3.9555694    18.732318  0.045109512  -0.12506564     1.205432    21.469365    9895.9519 
  456000    1.7975217    14.801227    16.598749   -3.9814379     18.73318  0.049485231  0.030898016    1.1984976    21.443849    9860.7108 
  457000     1.799435    14.780779    16.580214   -3.9897076    18.727688  0.042798026 -0.085567762    1.1997733    21.432505    9845.0696 
  458000    1.8039309    14.737722    16.541653   -4.0356732     18.73246  0.040935735    0.0783556    1.2027709    21.355986     9739.998 
  459000    1.7814702    14.750576    16.532046   -4.0174749    18.716171  0.051879594   0.14493581    1.1877953    21.388197    9784.1372 
  460000    1.7900498    14.798478    16.588528   -3.9626985    18.714902  0.046274289  -0.17028766    1.1935157    21.461365    9884.8939 
  461000    1.7921143    14.819109    16.611223   -3.9717013    18.740289  0.050521477   0.24766389    1.1948922    21.421276    9829.6037 
  462000    1.8104833    14.749892    16.560375   -4.0180439    18.718043  0.049892593  -0.08114274    1.2071397    21.413386    9818.7466 
  463000    1.7910259    14.790026    16.581052   -3.9856006    18.722945  0.052681681  0.036691955    1.1941665    21.416767    9823.3978 
  464000    1.8103551    14.805648    16.616003    -3.967179    18.725788  0.047039207 0.0077651121    1.2070543    21.456978    9878.8334 
  465000    1.7822384    14.819851    16.602089   -3.9673705    18.737888  0.049333122   0.15272078    1.1883075    21.448275     9866.818 
  466000     1.792778     14.78188    16.574658   -3.9906773    18.722797  0.049760206  0.078305289    1.1953348    21.426845    9837.2718 
  467000    1.8261305    14.772563    16.598693   -3.9845939    18.710237  0.046919578 -0.027070147    1.2175726    21.436038    9849.9392 
  468000    1.8032546    14.813866     16.61712   -3.9666258    18.732852  0.047639256  0.050383979      1.20232    21.455047    9876.1664 
  469000    1.8115721    14.776316    16.587888   -3.9875511    18.712591   0.05127669  0.085172794    1.2078657    21.425802    9835.8363 
  470000    1.8122995    14.766467    16.578767   -4.0222524    18.739287  0.049432098   0.10427579    1.2083507    21.385008    9779.7609 
  471000    1.8053559    14.754858    16.560214    -4.000078    18.708826  0.046109525   -0.0852219    1.2037211    21.414829    9820.7319 
  472000    1.8339763    14.780609    16.614586   -4.0087206    18.743234  0.046095467  -0.10255196    1.2228037    21.407472    9810.6128 
  473000    1.8033429    14.778193    16.581536   -3.9923035    18.725978  0.044519371  -0.13260307    1.2023789    21.439554    9854.7872 
  474000    1.8209433    14.758533    16.579477   -4.0190455    18.730855  0.046724024  0.023581074     1.214114    21.409337    9813.1772 
  475000    1.7680469    14.764748    16.532795   -3.9903728    18.700384   0.05473704  0.014119129    1.1788453    21.440984    9856.7596 
  476000    1.8023117    14.777483    16.579795   -3.9855253    18.717309  0.045699791   0.35415006    1.2016913    21.387695    9783.4488 
  477000     1.773698    14.793045    16.566743   -3.9667473     18.71567  0.044122454 -0.041318708    1.1826131    21.458119    9880.4098 
  478000    1.8303503    14.787335    16.617685   -3.9901295    18.728307  0.049157086   0.10906675    1.2203861    21.415783    9822.0446 
  479000    1.7872919    14.776484    16.563776   -4.0032828    18.727381  0.052385918  0.058917443    1.1916769    21.423378    9832.4974 
  480000    1.8109645    14.775749    16.586713   -4.0063302    18.734125  0.047953947   0.15278457    1.2074606    21.391864    9789.1697 
  481000    1.7732785    14.808292    16.581571   -3.9687035    18.725157  0.051838753  -0.12040975    1.1823335     21.43657    9850.6723 
  482000    1.7941698    14.775929    16.570099   -3.9988463    18.729335   0.04544111  0.087115686    1.1962628    21.416031    9822.3852 
  483000    1.7616922    14.796111    16.557803   -3.9888519    18.736047  0.048915764    0.1273835    1.1746083    21.410198    9814.3617 
  484000    1.8263933    14.772352    16.598746   -3.9942236    18.720665  0.045910723 -0.071247916    1.2177477    21.421672    9830.1483 
  485000    1.7989317    14.790103    16.589035   -3.9860122    18.729443  0.046672233 -0.0097335423    1.1994377    21.441199    9857.0553 
  486000    1.7548867    14.765278    16.520164   -4.0048654    18.723515   0.04662823   0.11027375    1.1700707     21.39591    9794.7262 
  487000    1.7835421    14.758248     16.54179   -3.9980168    18.711237  0.045028143  -0.10273706    1.1891767     21.39521    9793.7641 
  488000    1.8083816    14.773992    16.582373   -3.9890331    18.713806  0.049219124  -0.15255549    1.2057384    21.456068    9877.5774 
  489000    1.8079417    14.789539    16.597481   -3.9922874    18.735224  0.046602762   0.20592525    1.2054451    21.403779    9805.5371 
  490000    1.7961804    14.772832    16.569013   -3.9973958     18.72473  0.045497752  -0.13271964    1.1976033    21.436506    9850.5849 
  491000    1.8033098    14.780651    16.583961   -3.9922107    18.725697  0.047164201   0.20237673    1.2023568    21.419343    9826.9427 
  492000    1.7924904     14.74499    16.537481   -4.0249771    18.721795   0.04817249  0.027120933     1.195143    21.391451    9788.6032 
  493000    1.7948197    14.760507    16.555327   -4.0150099      18.7326  0.042917321  0.033588035    1.1966961    21.403021    9804.4945 
  494000    1.7969632     14.77924    16.576204   -3.9950979    18.725683  0.048655792  -0.26299036    1.1981252    21.441017    9856.8051 
  495000    1.8221764    14.798539    16.620716   -3.9902262    18.740438  0.048326972   0.20477495    1.2149361    21.401921    9802.9834 
  496000    1.7925189    14.793125    16.585644    -3.981988    18.727446  0.047667358 -0.067866452     1.195162    21.455422    9876.6847 
  497000    1.8148512    14.798932    16.613783   -3.9809878    18.738544  0.041375971 -0.012232714    1.2100521    21.429737    9841.2552 
  498000    1.7822881    14.778531    16.560819   -4.0048326    18.737762  0.045601906 -0.071084822    1.1883406    21.416874    9823.5447 
  499000    1.7925813    14.765668    16.558249   -4.0040038    18.722207  0.047464546   0.14627206    1.1952036    21.382103    9775.7766 
  500000    1.7995294    14.753931     16.55346    -4.008772    18.716379   0.04632317 -0.092981338    1.1998363    21.408727    9812.3381 
  501000    1.8051634    14.783061    16.588224   -4.0142079    18.750431  0.046837082  -0.15481773    1.2035927    21.405087     9807.334 
  502000     1.784907    14.791629    16.576536   -3.9806999    18.727623   0.04470642 -0.068011825    1.1900867    21.459989    9882.9928 
  503000    1.8232536    14.796007    16.619261   -3.9759833    18.720902    0.0510888  0.013550177    1.2156543    21.446402    9864.2334 
  504000    1.7901702    14.794137    16.584307   -3.9812614    18.729689  0.045709203   0.18586865     1.193596    21.419277     9826.852 
  505000    1.7750236    14.826275    16.601298     -3.96721    18.745454  0.048030274  -0.09602596     1.183497    21.460759    9884.0562 
  506000    1.8427987      14.7486    16.591398   -4.0331096    18.733501  0.048207918 -0.077950782     1.228686    21.381903    9775.5021 
  507000    1.7875489    14.791312    16.578861   -3.9861892    18.728624  0.048877797 -0.0062900965    1.1918483    21.444479    9861.5796 
  508000     1.810472    14.779041    16.589513    -4.013462    18.748685   0.04381733 -0.011940977    1.2071322    21.393077    9790.8356 
  509000     1.781325    14.755085     16.53641   -4.0303201    18.740194  0.045211425  0.027913238    1.1876985    21.382919    9776.8961 
  510000    1.8083919    14.776357    16.584749   -4.0087525    18.739092  0.046017991  0.036221457    1.2057453    21.405946    9808.5153 
  511000    1.7825289    14.798627    16.581156   -3.9866588    18.736549  0.048737798  0.080132977    1.1885011    21.426836    9837.2603 
  512000    1.7852131    14.779323    16.564536   -4.0093735    18.737058  0.051638397   0.19880633    1.1902909    21.390505    9787.3047 
  513000    1.7873064    14.792374    16.579681   -3.9795993    18.723645  0.048328329 -0.014092607    1.1916866    21.433767    9846.8094 
  514000    1.8393369    14.750425    16.589762    -4.005143    18.712239  0.043328767   0.12873273    1.2263779    21.414513    9820.2969 
  515000    1.7949695    14.756267    16.551236   -4.0075677    18.721141  0.042694168  0.071810933    1.1967959    21.397452    9796.8434 
  516000    1.7782716    14.772294    16.550565    -4.015364    18.734524  0.053133582  0.032620471    1.1856626    21.405789    9808.2992 
  517000    1.8100915    14.801318    16.611409   -3.9719463    18.727059  0.046205106  0.063871029    1.2068785    21.424286    9833.7477 
  518000    1.7914169     14.78109    16.572507   -3.9858741    18.721176  0.045787569   0.17596321    1.1944273    21.425887    9835.9533 
  519000    1.7992799    14.768195    16.567475   -4.0108196    18.733154  0.045861306  0.049314776    1.1996699    21.392571    9790.1408 
  520000    1.7898467    14.777638    16.567485   -3.9952735    18.730338  0.042573995  0.045016557    1.1933803     21.42655    9836.8652 
  521000    1.8183259    14.771775      16.5901   -4.0038537    18.723929  0.051699267 -0.013380526    1.2123688    21.410656     9814.991 
  522000     1.790738    14.783087    16.573825   -3.9790261    18.717909  0.044204555 -0.079347027    1.1939746    21.455771    9877.1668 
  523000    1.8241024    14.767855    16.591957   -4.0135289    18.732414  0.048969885 -0.072686377    1.2162203    21.397356    9796.7113 
  524000    1.7926913    14.752076    16.544767   -4.0152039     18.71813  0.049149553 -0.038101442    1.1952769    21.420318    9828.2844 
  525000    1.7943172    14.778184    16.572502   -4.0120184    18.738098   0.05210478   0.11336407     1.196361    21.396521    9795.5647 
  526000    1.7634355    14.818577    16.582012   -3.9630059    18.731596  0.049986596 0.00086246864    1.1757706    21.452176    9872.2021 
  527000     1.820598    14.795177    16.615775   -3.9755067    18.725714  0.044970387   0.12066309    1.2138837    21.433775    9846.8198 
  528000    1.7886145     14.76365    16.552265   -4.0120704     18.72728  0.048440833  -0.10442003    1.1925587    21.404122    9806.0087 
  529000    1.7935852    14.765696    16.559281   -3.9882873    18.709891  0.044092255  0.047626171    1.1958729    21.409018    9812.7392 
  530000    1.8249926    14.797609    16.622602   -3.9749674     18.72581  0.046766823  -0.24834072    1.2168138    21.465371    9890.4306 
  531000    1.8139339    14.784242    16.598176   -4.0078644    18.741787  0.050319881  0.032525368    1.2094404    21.415666    9821.8834 
  532000    1.8136787    14.739559    16.553238   -4.0354833    18.728325   0.04671701  0.062079062    1.2092703    21.374912     9765.917 
  533000    1.7975651    14.777006    16.574571   -3.9918457    18.721895  0.046955879 -0.064740943    1.1985266    21.441184    9857.0342 
  534000    1.8188208    14.763988    16.582809   -4.0138014    18.731147  0.046641941  0.085782613    1.2126988    21.401424       9802.3 
  535000    1.7885175    14.763881    16.552399   -3.9895412    18.709856  0.043566455 -0.069400084    1.1924941    21.427238    9837.8133 
  536000    1.8078178    14.793397    16.601215   -3.9850916    18.733291  0.045197298  0.088708639    1.2053625    21.426539    9836.8507 
  537000    1.8265621    14.768014    16.594576   -4.0047633    18.728463  0.044314305 -0.068771159    1.2178603    21.420006     9827.856 
  538000    1.8021446    14.727296    16.529441   -4.0479136    18.727994  0.047215467    0.1118419      1.20158    21.341494    9720.1834 
  539000    1.7673737    14.784691    16.552065   -3.9948606    18.734353    0.0451984  -0.22541766    1.1783964    21.426647    9836.9997 
  540000      1.82314    14.762252    16.585392   -4.0084721    18.724575  0.046149715  0.045461742    1.2155786    21.397452    9796.8437 
  541000    1.7967706    14.747336    16.544106   -4.0154336    18.719304  0.043465424  -0.15011956    1.1979968    21.434619    9847.9837 
  542000    1.8359811     14.76043    16.596411   -4.0216378    18.734429  0.047639226   0.16159158    1.2241404    21.369937    9759.0988 
  543000    1.7885974    14.787093    16.575691     -3.98659    18.729942   0.04374099  -0.21540893    1.1925473    21.450356    9869.6902 
  544000    1.8188896    14.763626    16.582516   -4.0158903    18.731708  0.047808188   0.14347895    1.2127447    21.397866    9797.4118 
  545000    1.7894984    14.753785    16.543284   -4.0141764    18.718954  0.049007732    0.1217138     1.193148    21.395313    9793.9067 
  546000    1.7931892    14.780294    16.573483   -3.9990509    18.734122  0.045223663 -0.068378342    1.1956089    21.413273    9818.5912 
  547000    1.8051206    14.816771    16.621892   -3.9712677    18.740181  0.047858293  0.049705878    1.2035642     21.42842    9839.4413 
  548000    1.7815888    14.798996    16.580585    -3.967312    18.725238  0.041070324 -0.073307616    1.1878744    21.445481    9862.9622 
  549000    1.8179974    14.748479    16.566476   -4.0364797    18.738613  0.046345139 -0.0090219888    1.2121498    21.381363    9774.7614 
  550000    1.7804874    14.757849    16.538337   -4.0141753     18.72874  0.043285057 -0.040885584      1.18714    21.384773    9779.4382 
  551000    1.8051024    14.747766    16.552868   -4.0244739    18.725669  0.046570408  0.021255385     1.203552     21.38983    9786.3777 
  552000    1.8300213    14.767184    16.597205   -3.9974673    18.722605  0.042046569 -0.060824104    1.2201667    21.436141    9850.0819 
  553000    1.8034181    14.793241    16.596659   -3.9964315    18.742054  0.047617977  -0.14081598     1.202429    21.441798     9857.881 
  554000    1.7909744    14.737189    16.528164   -4.0291652    18.716856  0.049498464 0.0028410664    1.1941322    21.366204    9753.9863 
  555000    1.7925423    14.771933    16.564475   -4.0120046    18.735714   0.04822374   0.18392483    1.1951776    21.391316    9788.4183 
[...]
 6160000     1.777521     14.75625    16.533771   -4.0227167    18.733788  0.045178867  -0.10324372    1.1851621    21.404002     9805.843 
 6161000    1.7640709    14.707165    16.471236   -4.0603876    18.725704  0.041848892  0.070222968    1.1761943    21.342228    9721.1857 
 6162000    1.7927469    14.722113    16.514859   -4.0461505    18.726298  0.041965518  0.026065359     1.195314    21.349911    9731.6884 
 6163000     1.790381    14.772161    16.562542    -3.997886    18.730719  0.039327901 -0.078682242    1.1937365    21.412998    9818.2131 
 6164000    1.8055257     14.77692    16.582445   -3.9819125    18.715454  0.043378295   0.21865546    1.2038343    21.405372    9807.7262 
 6165000    1.7749504    14.750009    16.524959   -4.0055471    18.716464  0.039092041  0.017744194    1.1834482    21.396515    9795.5568 
 6166000    1.7651801    14.717729     16.48291   -4.0504562    18.727002  0.041183357   0.06568086    1.1769338    21.344469    9724.2484 
 6167000    1.8058751    14.741293    16.547168   -4.0310428    18.725698   0.04663818 -0.026094491    1.2040673    21.411366    9815.9672 
 6168000    1.7893085    14.789644    16.578953   -3.9903503    18.734536  0.045457969  0.036082169    1.1930215    21.433598    9846.5763 
 6169000    1.7834245    14.743593    16.527018   -4.0032217    18.706727   0.04008766 -0.089324992    1.1890983    21.400122    9800.5118 
 6170000    1.7924586     14.76156    16.554019   -4.0199932    18.735309  0.046245039  -0.04070118    1.1951218    21.375876    9767.2372 
 6171000    1.8021666    14.773392    16.575558   -3.9957155    18.729683  0.039424048  -0.12294045    1.2015946    21.448156     9866.653 
 6172000     1.785261    14.783372    16.568633   -4.0116771    18.752349  0.042700006  0.010087412    1.1903228    21.383019     9777.033 
 6173000     1.810128     14.71533    16.525458   -4.0487232    18.721408  0.042645502 -0.080654101    1.2069029    21.362722    9749.2183 
 6174000     1.790643    14.770242    16.560885   -4.0093457     18.73539  0.044198125   0.15262363    1.1939112    21.393271    9791.1016 
 6175000    1.8145317    14.771924    16.586455   -3.9991751    18.727806  0.043292551 -0.040598495    1.2098391    21.426383    9836.6352 
 6176000    1.7934108    14.797281    16.590692   -3.9648366    18.720707  0.041410081   0.15552085    1.1957567    21.451625    9871.4424 
 6177000    1.7859179    14.773649    16.559567   -4.0127868    18.741829  0.044606569   0.21102786    1.1907608    21.389713    9786.2177 
 6178000     1.791616    14.748843    16.540459   -4.0277356    18.732998  0.043580601  -0.17920059      1.19456    21.395115    9793.6339 
 6179000    1.8216124    14.748134    16.569746    -4.020521    18.723031  0.045623624   0.11546325    1.2145601    21.381918    9775.5225 
 6180000    1.7812131    14.744398    16.525611   -4.0198958    18.720621  0.043672766  0.080044678    1.1876239     21.38027    9773.2627 
 6181000    1.7906763    14.753588    16.544264   -4.0167265    18.725735  0.044579389 -0.018236688    1.1939334    21.387351    9782.9755 
 6182000    1.8127498    14.792728    16.605477   -3.9690377    18.717285  0.044480479  0.070514633     1.208651    21.432029    9844.4133 
 6183000    1.8044594    14.780506    16.584965   -3.9848133    18.721747   0.04357143  -0.13144301    1.2031233    21.437993    9852.6344 
 6184000     1.770187    14.749122    16.519309   -4.0315617    18.737069  0.043614262  0.040737655    1.1802722    21.387164    9782.7193 
 6185000    1.8058918    14.742675    16.548567   -4.0212623    18.721295  0.042642953  0.027047782    1.2040784    21.367602    9755.8999 
 6186000     1.790957    14.754833     16.54579   -4.0164893     18.72712  0.044202316  0.093226322    1.1941206     21.39749    9796.8964 
 6187000    1.8070857    14.740906    16.547992   -4.0202926    18.719119  0.042079823  -0.21788315    1.2048744    21.379474    9772.1704 
 6188000    1.8026048    14.750605     16.55321    -4.017468    18.729635  0.038438469 -0.051966559    1.2018868    21.412737    9817.8534 
 6189000    1.7972593     14.79445    16.591709   -3.9936396    18.741758  0.046331694   0.20216299    1.1983226    21.388177    9784.1092 
 6190000    1.7939977    14.780259    16.574256   -4.0039735    18.740799  0.043433661  -0.11107971     1.196148    21.420066     9827.938 
 6191000    1.8045273    14.776082     16.58061   -3.9959904    18.729641  0.042431284  -0.12105963    1.2031686    21.420556    9828.6121 
 6192000    1.7903452    14.752318    16.542663   -4.0200198    18.727419  0.044918928  0.066185588    1.1937127    21.378468     9770.791 
 6193000    1.8021117    14.747657    16.549769   -4.0188541    18.724335  0.042176434   0.19253179     1.201558    21.401034    9801.7651 
 6194000    1.8126985    14.772372    16.585071   -4.0062687    18.736396  0.042244764  0.068432201    1.2086168    21.413039    9818.2688 
 6195000    1.8100921    14.730988     16.54108    -4.028681    18.719582  0.040086646  -0.16054534    1.2068789    21.392695    9790.3107 
 6196000    1.8007122    14.756538     16.55725   -4.0088984    18.724626  0.040810327 -0.0088291476    1.2006249     21.41041    9814.6536 
 6197000    1.8145079    14.774498    16.589006   -4.0117991    18.744627  0.041669485  0.054630457    1.2098231     21.40179    9802.8029 
 6198000     1.776574    14.753637    16.530211   -4.0205175    18.732885  0.041269032 0.0090182486    1.1845307    21.389262    9785.5988 
 6199000     1.798287    14.743254    16.541541   -4.0289835    18.731309  0.040928409  -0.21931688    1.1990079    21.376625    9768.2644 
 6200000    1.8259742    14.781289    16.607263   -3.9930794    18.730877  0.043491782 -0.00068660268    1.2174683    21.444035    9860.9668 
 6201000    1.8101754    14.769891    16.580066   -3.9981799    18.724135   0.04393596   -0.1387771    1.2069345    21.436344    9850.3614 
 6202000    1.7999349    14.746461    16.546396   -4.0283301    18.728099   0.04669174    0.1684247    1.2001066    21.375161    9766.2573 
 6203000    1.7783021    14.794856    16.573158   -3.9760029    18.724892  0.045966502   0.11681565     1.185683    21.447922    9866.3308 
 6204000    1.8273315     14.75869    16.586022   -3.9999985    18.719349  0.039340297  0.027348942    1.2183733    21.408338    9811.8035 
 6205000    1.7903485     14.76506    16.555409      -4.0037    18.726985  0.041775092  0.036209538    1.1937149     21.40206    9803.1744 
 6206000    1.8209419    14.760808     16.58175    -4.010453    18.727298  0.043962625   0.17914683     1.214113    21.422417    9831.1746 
 6207000    1.8261941    14.820918    16.647112   -3.9693954    18.744775  0.045539041    0.1614877    1.2176149    21.439967    9855.3558 
 6208000    1.7915611    14.795523    16.587084   -3.9640892    18.718882  0.040730084  -0.01942241    1.1945234    21.474399    9902.9152 
 6209000    1.8111629    14.770331    16.581494   -3.9973657    18.723349  0.044347201   0.14790864    1.2075929    21.412932    9818.1223 
 6210000    1.7842362    14.766383    16.550619   -4.0086718    18.733233   0.04182206 -0.087745128    1.1896395    21.427586    9838.2924 
 6211000    1.8029479    14.768879    16.571827   -4.0071636    18.731851  0.044191652 -0.032493601    1.2021155    21.410193    9814.3545 
 6212000    1.7880548    14.766945       16.555    -4.014074    18.735589  0.045429408  -0.10108664    1.1921856    21.403227    9804.7779 
 6213000    1.8003725    14.720112    16.520485   -4.0441438    18.720382  0.043873602 -0.090469343    1.2003984    21.364291    9751.3657 
 6214000    1.7803229    14.795289    16.575611   -3.9941423    18.745547  0.043883848 -0.043125864    1.1870303    21.417574    9824.5086 
 6215000    1.8057631    14.775022    16.580785   -3.9997119    18.729522  0.045212354  0.009160735    1.2039926     21.40942    9813.2913 
 6216000    1.7804043    14.757126     16.53753   -4.0154588    18.727933  0.044651229  -0.07012447    1.1870846    21.398514    9798.3026 
 6217000    1.8037735    14.759609    16.563382    -4.011124    18.726676  0.044056662  0.030570884     1.202666    21.396994    9796.2142 
 6218000    1.8282434    14.786956      16.6152    -3.981989    18.726864  0.042080825 -0.063662004    1.2189813    21.467426    9893.2717 
 6219000    1.8194601    14.815387    16.634847   -3.9714768    18.741364  0.045500042  0.046557105    1.2131251    21.477424    9907.1002 
 6220000    1.8116842    14.763993    16.575677   -4.0085615    18.726769  0.045785277  0.058185351    1.2079404    21.399161    9799.1914 
 6221000    1.7797844    14.772778    16.552563   -3.9911877    18.717376   0.04659044   0.09235949    1.1866713    21.417129    9823.8965 
 6222000    1.8184859    14.783663    16.602149   -3.9870818    18.727499  0.043245596   0.34335433    1.2124755    21.422404    9831.1562 
 6223000    1.7876118    14.769566    16.557178    -4.000249    18.723607  0.046207771  -0.13067481    1.1918902    21.421874    9830.4268 
 6224000     1.797343    14.732583    16.529926   -4.0511933     18.73791  0.045866568     0.170874    1.1983785    21.335754    9712.3428 
 6225000     1.789757    14.742506    16.532263   -4.0323557    18.729788   0.04507343 -0.078773351    1.1933205    21.380479    9773.5486 
 6226000    1.7984569    14.774243    16.572699   -4.0059606    18.731837  0.048366125 -0.0069744166    1.1991211    21.425907    9835.9804 
 6227000    1.8105053     14.77784    16.588346   -4.0179832    18.753801  0.042022887   0.12797881    1.2071544    21.388614    9784.7096 
 6228000    1.7742205    14.760849     16.53507   -4.0123509    18.731946  0.041254148  0.046509772    1.1829616    21.416343    9822.8139 
 6229000    1.8105116    14.755595    16.566107   -4.0055613    18.717774  0.043382415  0.053407498    1.2071586    21.392327    9789.8054 
 6230000    1.8119536    14.817514    16.629468   -3.9708653    18.743663  0.044717088  0.019843922    1.2081201    21.463965    9888.4874 
 6231000    1.8014587    14.777552     16.57901   -4.0016529     18.73724  0.041964866 0.0097350678    1.2011226    21.406437    9809.1905 
 6232000    1.7843584    14.770883    16.555241   -4.0073704    18.734396  0.043857219  0.052759519     1.189721    21.392683    9790.2945 
 6233000    1.7812498    14.737983    16.519233   -4.0285358    18.723148  0.043371704 -0.0011615902    1.1876483    21.380468    9773.5339 
 6234000    1.8023669    14.735636    16.538003   -4.0145883    18.706288  0.043935705   0.13858435    1.2017282    21.376424    9767.9896 
 6235000    1.7845643    14.769004    16.553569   -3.9978164    18.727243  0.039577784 -0.071036662    1.1898582    21.404617     9806.688 
 6236000    1.8066756    14.801115     16.60779   -3.9850808    18.742711  0.043484802 -0.014929449     1.204601    21.427474    9838.1388 
 6237000     1.801603    14.770209    16.571812   -4.0078487    18.735538  0.042520077  -0.13038871    1.2012188    21.415887    9822.1867 
 6238000    1.7903638    14.774835    16.565199   -3.9846562    18.715908  0.043582921  -0.04212484    1.1937251    21.427661    9838.3956 
 6239000    1.8140936    14.794584    16.608677   -3.9867798    18.737292  0.044071506 -0.084202939    1.2095469     21.40873    9812.3433 
 6240000    1.7773626    14.787074    16.564437   -3.9752903    18.717086  0.045278149  -0.10633541    1.1850565    21.452871    9873.1619 
 6241000    1.8426098    14.743387    16.585997    -4.041334     18.74231  0.042411226   0.17556269    1.2285601    21.368474    9757.0953 
 6242000    1.7635788    14.776111     16.53969    -3.991463    18.727366  0.040208944  -0.12565512    1.1758662    21.430468    9842.2627 
 6243000    1.8124019    14.758902    16.571304     -4.01474    18.730419  0.043222851  0.021932172     1.208419    21.365454    9752.9584 
 6244000    1.7787729    14.755384    16.534157   -4.0168658    18.730931  0.041318321   -0.0782682    1.1859968    21.408935     9812.625 
 6245000    1.8048932    14.765056    16.569949   -4.0074786    18.728575   0.04395937  0.022932816    1.2034126    21.422831     9831.745 
 6246000    1.7960137    14.767273    16.563287     -3.99936    18.722158  0.044475042  -0.04537416    1.1974921    21.409292    9813.1154 
 6247000    1.7726765    14.749093    16.521769   -4.0190481    18.722824  0.045317449  0.020653807    1.1819321    21.382359    9776.1269 
 6248000     1.808315    14.766757    16.575072   -4.0129603     18.73245  0.047267017 -0.014392187    1.2056941    21.410291    9814.4887 
 6249000    1.7946417    14.790268     16.58491   -3.9861727    18.732793  0.043647774   0.19943135    1.1965774    21.422432    9831.1952 
 6250000    1.8097024    14.779624    16.589327   -3.9957188    18.734168   0.04117474  -0.21518718    1.2066191    21.425753    9835.7677 
 6251000     1.769082    14.789417    16.558499   -3.9789882    18.723858  0.044547004  0.036997997    1.1795354    21.417863    9824.9055 
 6252000    1.8156368    14.760681    16.576318   -4.0194588    18.738819  0.041320782  0.099072395    1.2105758    21.371098    9760.6901 
 6253000    1.7805935    14.768729    16.549322   -3.9933104    18.715957  0.046081824  -0.06917421    1.1872108    21.426062    9836.1941 
 6254000    1.8074006    14.765434    16.572835   -4.0134487    18.729481  0.049402167  0.038460424    1.2050844    21.392109    9789.5061 
 6255000    1.7759168    14.740138    16.516054   -4.0287139    18.727325  0.041525978 -0.099837885    1.1840926    21.387961    9783.8135 
 6256000    1.7718344    14.725268    16.497103   -4.0532598    18.735131  0.043396867  0.068096648    1.1813706    21.331874    9707.0444 
 6257000    1.7971584    14.755857    16.553015   -4.0254094    18.733487  0.047779491   0.09524966    1.1982554    21.411244    9815.8005 
 6258000    1.8042904    14.782988    16.587278   -3.9960542    18.736492  0.042549989 -0.0044665376    1.2030106    21.426008    9836.1199 
 6259000      1.80131    14.770733    16.572043   -3.9978229    18.725203  0.043353287  0.022125869    1.2010234    21.415915     9822.226 
 6260000     1.795942     14.72789    16.523832   -4.0366901    18.721297  0.043282887 -0.077382916    1.1974443    21.364598    9751.7862 
 6261000      1.77324    14.733479    16.506719   -4.0351676    18.721597  0.047049348   0.12542239    1.1823078    21.374529    9765.3912 
 6262000    1.7909707    14.784653    16.575623   -4.0102366    18.756417  0.038472411  0.056724464    1.1941297    21.403085    9804.5826 
 6263000    1.7999731    14.776901    16.576874   -4.0014951    18.732601  0.045795304  -0.11904743    1.2001321    21.418283    9825.4842 
 6264000    1.8119493    14.715728    16.527678   -4.0322451    18.704977  0.042996397  -0.15602839    1.2081172    21.388837    9785.0158 
 6265000    1.8115144    14.750294    16.561808   -4.0142119    18.721766   0.04273931 -0.099729283    1.2078272    21.388242    9784.1984 
 6266000    1.8048942    14.770377    16.575271   -4.0128791    18.734905  0.048350865  0.015125637    1.2034132    21.418833    9826.2405 
 6267000    1.7778274    14.744425    16.522252   -4.0258454    18.724987  0.045282971  -0.15611573    1.1853664    21.393149    9790.9348 
 6268000    1.8057324    14.729313    16.535046   -4.0305623    18.716994  0.042881839   0.03865963    1.2039721    21.360236    9745.8145 
 6269000    1.8135442    14.760383    16.573927   -4.0061672    18.722957  0.043593452  0.050289159    1.2091806    21.410691    9815.0394 
 6270000    1.7998264     14.75827    16.558096   -4.0097672    18.725509  0.042528473 0.0057764967    1.2000343    21.415501    9821.6564 
 6271000    1.8016102    14.742942    16.544553   -4.0258155    18.721735  0.047022663  -0.15128808    1.2012236    21.374375    9765.1807 
 6272000    1.8138292     14.76811    16.581939    -4.013501     18.73836  0.043251086   -0.1509934    1.2093706    21.421075     9829.327 
 6273000    1.8147195    14.786494    16.601214   -3.9856901    18.724057  0.048127624 -0.046833308    1.2099642    21.432363    9844.8738 
 6274000    1.7689692    14.791483    16.560452   -3.9894402    18.736276  0.044647457   0.17638237    1.1794602    21.426572    9836.8956 
 6275000    1.7829898      14.7966     16.57959   -3.9898223    18.740274  0.046147617  0.017533402    1.1888085    21.440844    9856.5665 
 6276000    1.7989662     14.78388    16.582846   -3.9906186    18.730369  0.044129343  0.062951675    1.1994607    21.419836    9827.6217 
 6277000    1.7928098    14.769554    16.562364   -4.0009299    18.720357  0.050126956 -0.035683935    1.1953559    21.408699    9812.2996 
 6278000    1.7848213    14.766292    16.551113   -4.0103885    18.728807  0.047873055  -0.21827922    1.1900296    21.399554    9799.7318 
 6279000    1.8023205    14.779175    16.581496    -3.995968    18.730112  0.045031097  0.038925247    1.2016972    21.426944    9837.4081 
 6280000    1.8138957    14.740062    16.553958   -4.0210399    18.718965  0.042137052 -0.049639182    1.2094149    21.409397    9813.2604 
 6281000    1.8209966    14.760725    16.581721    -3.993636    18.714768  0.039592654   0.13483062    1.2141495     21.41144    9816.0697 
 6282000    1.8028523    14.759611    16.562464   -4.0109425    18.729733  0.040821265  0.033718215    1.2020518    21.389378    9785.7573 
 6283000    1.7656561    14.737181    16.502837   -4.0233192    18.715639  0.044861796   0.07900507    1.1772512    21.377214    9769.0726 
 6284000    1.8016825    14.756193    16.557876   -4.0099046    18.728014  0.038084058 -0.051901932    1.2012718     21.40649    9809.2637 
 6285000    1.7786922     14.79848    16.577172   -3.9796105    18.732881  0.045209278   0.01512258     1.185943    21.422792    9831.6908 
 6286000    1.7965795    14.764484    16.561063   -3.9965308    18.719853  0.041161776  0.075719783    1.1978694    21.417169    9823.9505 
 6287000    1.8202607    14.777115    16.597376   -3.9994145    18.734512  0.042017358  -0.20077615    1.2136589    21.430534    9842.3537 
 6288000    1.7873956    14.771398    16.558793   -3.9999702    18.728652  0.042715532   0.24244217     1.191746    21.391188     9788.242 
 6289000    1.7888129    14.777628    16.566441   -3.9869561    18.724577  0.040006877 -0.041213696     1.192691    21.426957    9837.4263 
 6290000    1.8208062    14.777204     16.59801   -3.9965294    18.728263  0.045471111 -0.093967352    1.2140225    21.416481    9823.0039 
 6291000    1.7795821    14.754644    16.534226   -4.0023996    18.713426  0.043616987  0.047243536    1.1865364    21.402798    9804.1881 
 6292000    1.8165003    14.750256    16.566756   -4.0210441    18.730166  0.041133955 -0.0043483194    1.2111516    21.390248    9786.9522 
 6293000    1.8094165    14.793165    16.602581   -3.9977187     18.74872  0.042163991  0.020849998    1.2064285    21.408977    9812.6825 
 6294000    1.7920732    14.774883    16.566956   -3.9959842    18.729299  0.041568245   0.12482421    1.1948648    21.409806    9813.8223 
 6295000     1.814328    14.765975    16.580303   -4.0071649    18.730447  0.042693307 -0.079703252    1.2097032    21.403583    9805.2673 
 6296000    1.7825521    14.776324    16.558876   -3.9939192    18.729699   0.04054453   0.01425732    1.1885166    21.414185    9819.8449 
 6297000    1.8131635    14.736601    16.549764   -4.0272589    18.720388  0.043471982  0.016782173    1.2089268    21.376845    9768.5667 
 6298000    1.7709063    14.761063    16.531969   -4.0121102     18.73019  0.042982594  0.082348475    1.1807518    21.422156    9830.8151 
 6299000    1.8031538     14.77599    16.579144   -3.9939532    18.726352  0.043591162    0.2545807    1.2022528    21.396824    9795.9818 
 6300000    1.7996521    14.777465    16.577117   -4.0010986    18.737884  0.040679559   0.14422856     1.199918    21.443903    9860.7855 
 6301000    1.7984967    14.774815    16.573312   -4.0022107    18.732594  0.044431617   0.18160536    1.1991477      21.4019     9802.954 
 6302000    1.8121435    14.715761    16.527904   -4.0452872     18.7172