8000
Atoms. Timestep: 0
1 8.07187 10.3564 -9.64276
1 7.69354 9.9015 -10.3378
1 7.06571 9.52599 9.76801
1 6.85674 9.04824 8.91716
1 7.40692 8.25499 8.73949
1 6.80861 8.47607 7.99994
1 6.41532 7.62564 8.16738
1 5.6444 6.98562 8.17351
1 5.80778 6.29072 8.75292
1 5.98092 5.53179 9.3304
1 -9.45844 -9.703 -1.64523
1 10.3212 -9.66131 -1.60833
1 -10.214 -9.77155 -0.657323
1 -9.33811 -9.36389 -0.552079
1 -8.37183 -9.21775 -0.601583
1 -8.7229 -9.06741 -1.48793
1 -8.1259 -9.5001 -2.07863
1 -8.32397 -8.88248 -2.77591
1 -8.86333 -8.07401 -2.50943
1 -9.38233 -8.90111 -2.32764
1 -9.06636 2.43513 -9.64969
1 -9.49112 1.52588 -9.6901
1 -8.5557 1.57459 -10.0141
1 -8.72618 0.824028 10.1176
1 -8.27078 0.39073 -9.94744
1 -9.20188 0.391624 -9.94914
1 -10.1735 0.631335 -9.86551
1 -10.0838 0.105673 10.1258
1 -9.93169 -0.337042 -9.77609
1 -9.80771 -0.0282939 -8.89692
1 8.97254 -0.293327 1.27979
1 8.44127 0.205546 0.674502
1 8.64172 1.16895 0.647385
1 8.23822 1.14622 1.52669
1 7.67013 0.326583 1.59525
1 7.46642 -0.339821 0.971618
1 6.72678 0.329054 0.836393
1 6.48481 -0.120526 1.62324
1 7.07014 -0.79191 2.1649
1 6.48046 -1.60743 2.20349
1 3.82827 -5.35603 -8.42543
1 4.14448 -4.62741 -8.94374
1 4.64327 -4.63055 -9.74167
1 5.01695 -3.9669 -9.15018
1 4.59265 -3.246 -8.68645
1 4.34399 -2.85937 -9.51188
1 4.61527 -1.93524 -9.66193
1 5.15601 -2.2092 -8.89823
1 6.09164 -2.37995 -8.96239
1 5.83241 -3.1515 -8.34981
1 6.3003 -8.25148 -9.64862
1 6.3664 -8.08412 10.1903
1 6.67686 -9.00424 10.0054
1 7.62332 -8.99076 10.0638
1 7.41768 -8.42727 9.34887
1 7.4304 -8.67556 8.45256
1 7.41674 -8.21789 7.57489
1 8.35802 -8.25588 7.82021
1 9.09409 -8.47732 7.1958
1 8.96164 -9.41328 6.92336
1 0.729984 5.34532 0.265163
1 1.40239 5.67493 0.894788
1 2.02195 6.37992 0.775673
1 1.32212 6.72476 1.29388
1 0.580141 6.83841 0.66259
1 0.46165 7.78088 0.870442
1 0.670986 8.63732 1.25071
1 1.39931 9.22802 1.39714
1 1.98609 9.15757 0.630414
1 2.52123 8.3728 0.742881
1 -3.11514 -1.78044 7.9543
1 -3.98229 -2.14798 8.13374
1 -4.09181 -1.889 7.19286
1 -3.22014 -2.23877 6.97268
1 -2.91141 -1.25342 7.04175
1 -2.01477 -1.22676 7.2417
1 -1.27955 -1.82886 7.40962
1 -1.1701 -2.71175 7.72347
1 -1.08293 -3.65103 7.70706
1 -0.150365 -3.4309 7.6592
1 -1.75395 -5.14729 9.06642
1 -1.64542 -5.87125 9.71057
1 -2.15056 -6.71813 9.70185
1 -1.56388 -6.81072 -10.3383
1 -1.71416 -7.72543 10.0626
1 -1.58412 -8.3533 -10.0081
1 -1.37598 -8.9223 10.0167
1 -1.25666 -9.19553 9.03809
1 -1.74032 -9.15913 8.19209
1 -0.859712 -9.40185 7.85339
1 -9.51221 3.50748 -5.41177
1 -8.87571 2.89291 -5.80616
1 -9.23092 3.41941 -6.56257
1 -8.96321 3.90556 -7.34935
1 -8.31874 4.39768 -6.81058
1 -9.09625 4.48764 -6.22239
1 -8.73027 4.45798 -5.3111
1 -8.36209 3.67522 -4.96544
1 -7.43385 3.68571 -5.21422
1 -8.01978 3.41909 -5.9783
1 8.42113 -2.3272 -3.59362
1 8.19097 -1.71086 -4.30244
1 8.34387 -0.861 -3.86799
1 9.15794 -0.566992 -3.40509
1 8.43133 -0.567811 -2.85776
1 8.74246 -1.45828 -3.15511
1 9.65223 -1.54622 -3.44388
1 9.84093 -1.09559 -2.63975
1 -10.2827 -1.79613 -2.38545
1 -9.66384 -1.23518 -2.81919
1 4.92377 -4.96827 2.16308
1 4.3521 -4.2331 2.45637
1 3.50139 -4.6633 2.60162
1 2.96072 -5.07579 1.89649
1 2.76014 -5.58782 1.0963
1 2.50613 -4.71071 0.740985
1 2.38458 -5.20627 -0.0564452
1 1.54298 -5.25187 -0.454565
1 1.40417 -5.58733 -1.3597
1 0.515976 -5.55115 -1.03198
1 -7.31313 7.27118 6.5968
1 -6.60145 7.63694 6.11615
1 -7.44176 7.9775 5.85377
1 -7.7815 8.10792 4.91506
1 -8.5037 7.58772 4.44426
1 -8.38728 6.90808 5.10581
1 -8.00316 6.04794 5.10797
1 -8.2452 6.25241 6.03799
1 -8.01784 6.01411 6.97087
1 -8.49053 5.65782 7.73252
1 -6.1957 -2.01615 -9.95166
1 -6.73412 -2.76821 -10.1061
1 -7.62886 -3.07287 -10.1028
1 -7.99677 -2.96459 -9.15204
1 -7.11874 -2.97033 -8.73503
1 -7.1033 -3.8211 -9.199
1 -7.25572 -4.62465 -8.77164
1 -8.0688 -4.30419 -8.38953
1 -7.76926 -3.43149 -7.95864
1 -8.66035 -3.09345 -8.0392
1 7.27581 -7.85736 -5.42549
1 7.99797 -7.75551 -6.06885
1 7.66698 -7.19358 -6.88252
1 6.84824 -7.46355 -6.38849
1 7.20569 -8.362 -6.43812
1 7.67468 -8.99089 -7.04133
1 7.86169 -8.5462 -7.84343
1 7.97366 -7.59741 -7.91145
1 7.45573 -7.81453 -8.6299
1 6.53037 -7.52071 -8.76001
1 -3.45498 -7.56339 3.93615
1 -3.35581 -8.01128 3.02514
1 -3.74386 -8.68538 3.56385
1 -3.3191 -9.58292 3.57791
1 -3.36915 10.2736 3.92351
1 -3.31581 10.0731 4.86829
1 -4.14857 9.62849 4.72953
1 -5.03203 9.29687 4.67759
1 -4.88935 8.54009 5.25205
1 -5.71245 7.93634 4.98564
1 5.64929 -5.53332 9.91564
1 6.03522 -6.38985 9.83466
1 6.20293 -6.90885 9.03332
1 5.35671 -7.36305 8.64503
1 5.78645 -7.89667 9.31822
1 6.37356 -8.59705 9.04419
1 5.53787 -8.94935 8.72557
1 5.34069 -9.78894 8.32255
1 4.87961 -9.13859 7.75547
1 5.30717 -9.04366 6.8327
1 8.63616 -7.45271 -3.63882
1 8.50228 -7.58466 -2.72121
1 8.41919 -8.41793 -2.31088
1 7.50554 -8.05306 -2.23715
1 7.55208 -7.12919 -2.10094
1 7.36631 -6.29215 -1.65965
1 7.91069 -5.7907 -1.04571
1 7.90399 -6.77575 -0.957437
1 8.35264 -7.44076 -1.46899
1 8.46357 -6.5526 -1.83086
1 -5.02449 1.41935 -7.54032
1 -4.99921 1.4622 -8.51888
1 -5.25342 0.563002 -8.45707
1 -5.86048 0.320052 -9.1553
1 -5.94202 1.2864 -9.02192
1 -5.73169 2.21858 -9.06623
1 -5.13798 2.55213 -8.43913
1 -5.51819 3.44234 -8.28195
1 -5.94509 4.14862 -8.71441
1 -5.398 3.80373 -9.48171
1 10.2205 7.44811 -1.32693
1 9.78856 7.48357 -0.388254
1 9.72969 7.65327 0.536542
1 -10.3076 8.22419 0.74277
1 9.60422 8.63472 1.12686
1 8.62765 8.85233 1.02948
1 8.4642 8.07607 0.483267
1 8.29371 7.75843 1.39764
1 7.78788 7.01678 1.0333
1 7.16134 7.71103 1.03815
1 -4.80732 -0.573889 10.2256
1 -5.35338 -0.424236 9.44048
1 -6.02668 0.135805 9.72654
1 -6.49183 -0.565833 9.2595
1 -6.30239 0.153818 8.58308
1 -7.07572 0.723179 8.73665
1 -7.11934 0.561172 9.6905
1 -7.46803 0.975271 -10.2974
1 -6.75454 1.65092 10.3038
1 -6.19235 0.900054 -10.2912
1 -7.58161 0.554061 -2.53183
1 -7.3969 1.44232 -2.91851
1 -8.28322 1.35968 -2.48239
1 -9.1555 1.63863 -2.52931
1 -9.4914 0.956082 -1.96982
1 -10.1619 1.36377 -2.53079
1 9.82471 1.97492 -2.64647
1 9.64047 1.59053 -1.76283
1 8.78812 1.59615 -2.29499
1 8.92865 2.47777 -1.81995
1 0.57509 7.20758 4.27971
1 0.381529 6.67652 3.54348
1 0.57927 5.88525 3.00992
1 0.522177 5.07348 2.5535
1 0.540878 4.18545 2.9041
1 -0.153651 4.74106 3.36392
1 -0.62196 3.90809 3.2286
1 -1.51029 3.47847 3.09784
1 -1.82218 2.72346 2.58767
1 -1.83441 2.34614 3.46238
1 9.01983 1.26039 8.00107
1 9.27296 1.95971 7.36621
1 8.82019 2.28844 8.11347
1 9.7397 2.10077 8.41842
1 10.2879 1.81794 9.14206
1 10.3696 2.7816 9.24465
1 -9.6744 3.15705 8.8028
1 -8.74146 2.9856 9.05943
1 -8.40313 2.34347 8.48704
1 -7.83403 3.05737 8.42586
1 -1.8639 2.19714 -8.58216
1 -1.91007 1.36144 -9.10951
1 -2.01359 0.485909 -9.43768
1 -2.82324 -0.0674143 -9.43588
1 -2.25473 -0.225154 -8.67911
1 -2.51713 -0.0210048 -7.7908
1 -1.97166 0.669795 -8.17494
1 -2.89946 0.766946 -8.44638
1 -3.02097 0.802313 -7.48521
1 -3.91393 1.10746 -7.61724
1 0.824546 7.27154 -3.20434
1 -0.0364138 6.69942 -3.15247
1 0.640719 6.07293 -3.43574
1 1.00068 5.23971 -3.73503
1 1.91814 5.57842 -3.59655
1 1.93352 6.35287 -3.03976
1 1.57571 5.74109 -2.33476
1 1.27325 5.11938 -1.61245
1 1.21435 4.72977 -2.52254
1 1.48319 4.36397 -3.38212
1 9.27131 4.29412 4.67247
1 8.76428 4.79551 4.08263
1 8.2417 4.24364 3.57491
1 7.86125 3.31789 3.72931
1 8.76909 3.13842 3.45606
1 8.70017 2.42564 4.1774
1 9.25789 1.82318 4.62373
1 9.85671 2.0922 5.33962
1 10.129 2.14636 6.25581
1 9.18154 2.05751 6.23529
1 2.48673 -5.4007 -2.01255
1 2.12882 -4.66557 -1.55721
1 1.25582 -4.47042 -1.12507
1 0.852311 -4.21915 -0.282873
1 1.79215 -4.22104 -0.0829148
1 2.06151 -3.53862 -0.707783
1 1.879 -2.7154 -1.0699
1 1.33277 -1.96804 -1.35294
1 0.428149 -1.7001 -1.56888
1 0.46872 -2.0829 -2.43891
1 9.50501 7.43742 -6.50824
1 10.1411 6.72624 -6.39503
1 -9.92131 6.03962 -6.57788
1 10.0079 5.68882 -6.95946
1 9.35477 6.44797 -7.02838
1 8.51831 6.22632 -7.38701
1 8.34759 6.97907 -6.81714
1 8.38361 7.91761 -6.7545
1 9.08868 8.51559 -6.50533
1 9.15884 8.19563 -7.44924
1 4.11599 -1.25784 4.53421
1 4.1805 -0.913335 5.43818
1 3.36644 -0.403982 5.52718
1 3.02363 -1.05435 4.90926
1 2.67309 -1.4319 5.68978
1 2.33062 -2.03765 5.06187
1 1.75808 -2.27065 4.33168
1 1.1706 -1.50579 4.37689
1 0.803127 -2.05156 5.10857
1 0.484989 -2.78567 5.73524
1 1.48223 -4.41954 -7.51089
1 0.990712 -3.6123 -7.34276
1 0.450481 -4.17957 -6.84842
1 0.428049 -3.16748 -6.68981
1 1.012 -2.50164 -6.19773
1 1.28649 -2.75109 -5.31363
1 1.0751 -1.75537 -5.27907
1 1.2777 -0.928922 -5.79873
1 2.30134 -0.879943 -5.89396
1 1.82073 -1.62554 -6.37979
1 -6.03279 -0.783576 -5.35987
1 -5.42636 -1.23499 -4.81159
1 -5.26328 -1.67513 -5.58049
1 -5.07291 -0.750499 -5.7821
1 -4.13495 -0.612425 -6.09329
1 -4.05808 -0.295442 -5.2485
1 -4.30216 0.146036 -4.40588
1 -4.09711 0.870149 -5.03793
1 -3.92157 0.740659 -5.93851
1 -4.86833 0.507664 -5.90679
1 9.50411 7.29756 -3.48753
1 10.205 8.02882 -3.60831
1 9.52913 8.17028 -4.27903
1 10.2863 8.22724 -4.85054
1 9.70771 7.90524 -5.53724
1 9.81492 6.97651 -5.46675
1 10.0588 7.12401 -4.59248
1 -10.245 6.80321 -3.80364
1 -10.0381 6.23175 -4.55775
1 -9.09369 6.51277 -4.59695
1 1.64346 -7.54249 -4.17591
1 0.968986 -7.26926 -3.57846
1 0.70014 -7.75828 -2.81741
1 0.617427 -8.26994 -3.59436
1 -0.0854952 -8.53804 -3.04685
1 -0.5844 -9.26482 -2.70989
1 -0.629373 -9.60189 -3.67984
1 0.0107005 -10.0139 -4.16447
1 0.350671 -9.55401 -3.38771
1 0.0440443 -10.2183 -2.73648
1 -6.66481 -7.14033 3.53711
1 -6.79081 -6.28807 3.97837
1 -7.70097 -6.24644 3.76582
1 -7.39985 -5.26952 3.6463
1 -6.9152 -4.54018 3.88299
1 -6.16355 -4.22606 3.40084
1 -5.75988 -3.41541 3.12604
1 -6.33136 -3.71182 2.37428
1 -7.0704 -3.08408 2.28385
1 -6.35467 -2.48872 2.60061
1 1.16469 1.67588 -0.92237
1 0.430145 1.86052 -0.279862
1 -0.142968 2.32064 -0.914993
1 -0.684498 1.55563 -0.556172
1 -1.53833 1.59755 -0.0713125
1 -2.04506 2.45603 -0.0640978
1 -1.63056 3.3984 0.0358561
1 -2.44725 3.26876 0.613588
1 -3.32725 3.69772 0.680958
1 -3.86128 3.72835 -0.168525
1 1.90688 7.78807 1.42923
1 2.54497 7.21058 0.883522
1 2.25084 7.17459 -0.00569631
1 1.46188 7.38902 0.506788
1 1.36412 8.29627 0.64655
1 1.91567 8.27132 -0.216737
1 2.02646 7.61172 -0.863077
1 2.62841 7.47016 -1.57691
1 2.25735 8.03705 -2.27618
1 2.63986 8.45443 -3.00693
1 -1.41912 -2.08786 6.42749
1 -1.33243 -2.97758 6.67652
1 -1.87985 -2.93316 5.82752
1 -2.81571 -2.79768 5.89964
1 -2.61198 -1.98479 5.42596
1 -2.29136 -2.41276 4.62802
1 -1.5693 -1.97527 4.15849
1 -1.18933 -2.84799 4.28562
1 -0.991094 -2.30727 5.06717
1 -0.642011 -2.98757 5.68214
1 -6.02506 8.76591 -7.7087
1 -6.14765 8.07373 -7.0761
1 -5.98839 7.6241 -7.90197
1 -5.16403 8.13306 -7.84337
1 -5.13022 7.262 -7.51557
1 -5.72006 6.98851 -6.81583
1 -6.66194 7.16064 -7.06634
1 -6.8507 6.20847 -7.06193
1 -6.90183 6.64153 -6.20548
1 -6.04991 6.41386 -5.91643
1 8.60837 -3.36761 5.41477
1 8.51566 -4.04227 6.12575
1 8.96797 -4.8343 6.04774
1 9.28111 -4.2452 5.32903
1 10.0798 -3.77418 5.06894
1 9.43256 -3.86445 4.39564
1 9.12926 -4.54827 3.83257
1 8.5661 -4.92713 4.45526
1 8.21236 -4.08412 4.78575
1 8.04947 -4.13333 3.83846
1 -4.92331 -8.87094 -9.00782
1 -4.85278 -7.95974 -9.30671
1 -4.6151 -8.45635 -10.0867
1 -4.49419 -9.41608 -10.0333
1 -5.45179 -9.6256 -10.0357
1 -5.26867 10.2002 -9.77299
1 -5.72663 9.41349 -10.1717
1 -5.58213 9.41195 9.6124
1 -5.27109 9.24379 8.69141
1 -5.19461 9.92088 8.03447
1 -4.09651 -8.91533 7.57124
1 -3.53565 -8.91119 6.75548
1 -4.2164 -9.55702 6.70456
1 -3.79548 -9.45656 5.88662
1 -4.66401 -9.53072 5.54977
1 -5.26461 -8.90789 5.23573
1 -5.61043 -8.25671 4.61364
1 -5.22045 -7.5299 5.10036
1 -4.68743 -7.36814 5.88904
1 -4.14085 -8.02796 6.34217
1 0.314959 -5.15788 -9.94766
1 1.13652 -5.58262 -10.1033
1 0.840356 -6.07592 -9.37194
1 1.45051 -5.61785 -8.87567
1 0.822161 -5.13901 -8.38531
1 0.882395 -5.24146 -7.44083
1 1.69707 -5.81767 -7.49703
1 1.59854 -6.81726 -7.32969
1 0.723599 -7.14231 -7.34219
1 0.504874 -6.44029 -6.74328
1 -7.79595 1.93134 1.66833
1 -7.60306 1.21599 2.19528
1 -7.03123 1.70054 2.78312
1 -7.68209 2.25949 3.24828
1 -8.60383 2.23458 3.43193
1 -8.5488 1.93929 2.50252
1 -8.66278 1.00286 2.57242
1 -8.59146 0.180982 3.11341
1 -8.33859 -0.790535 3.20116
1 -7.91749 -0.163857 3.78277
1 7.3745 9.37476 -3.81207
1 7.95059 8.79429 -3.17488
1 8.83242 8.85046 -2.77422
1 9.7211 8.41618 -2.82163
1 9.66073 9.0389 -3.57452
1 -10.139 8.92711 -3.4112
1 10.2965 9.71985 -2.93379
1 9.94773 9.43916 -2.06453
1 -10.2772 9.90468 -1.49987
1 10.376 9.98629 -0.543156
1 7.88904 -4.20816 9.17265
1 8.11725 -3.69882 8.39631
1 8.97663 -4.18969 8.44596
1 8.90126 -3.56304 7.74074
1 8.6915 -4.32644 7.13984
1 8.00195 -4.59256 7.72015
1 7.48348 -3.73083 7.57037
1 7.19528 -4.12855 6.8068
1 7.93098 -4.76628 6.66146
1 7.16648 -5.31287 6.42906
1 2.86835 8.69399 8.24904
1 2.04382 8.41545 8.70417
1 1.50027 7.91677 8.07169
1 1.33845 8.84414 8.0913
1 0.688747 9.46381 8.24514
1 -0.185562 9.52411 7.82392
1 -0.012777 10.3162 8.29893
1 -0.2755 9.60011 8.97955
1 -1.17525 9.90508 9.01482
1 -1.87126 -10.2866 9.21811
1 -8.90898 -1.42581 -6.5663
1 -7.93861 -1.21812 -6.49227
1 -8.21988 -0.371925 -6.12478
1 -8.59787 0.467029 -5.74994
1 -9.06463 0.96544 -6.47576
1 -8.35879 0.843453 -7.12003
1 -8.23758 0.874801 -8.14724
1 -9.21166 0.803436 -8.27129
1 -8.6964 0.721905 -9.08657
1 -8.34043 1.65868 -8.84399
1 7.24182 -5.18841 -1.56574
1 7.89221 -4.66738 -1.15402
1 7.3907 -4.13712 -0.566603
1 7.97366 -3.41836 -0.301326
1 7.80917 -2.81121 0.416518
1 6.92423 -3.18809 0.0890252
1 6.79603 -3.34501 1.00793
1 6.04609 -3.70883 0.566963
1 6.4039 -4.34976 -0.0191748
1 5.75401 -4.45013 -0.752107
1 -2.94735 -8.73014 -7.47822
1 -3.8506 -9.05278 -7.27219
1 -4.76238 -8.77292 -7.04425
1 -4.73177 -8.11134 -7.7607
1 -4.26006 -7.79999 -8.56079
1 -3.79806 -7.32851 -9.20705
1 -3.74247 -8.30833 -9.19388
1 -3.11351 -8.66349 -8.55
1 -3.99415 -8.88762 -8.26282
1 -3.52119 -9.74405 -8.19597
1 -1.25615 8.12009 0.793806
1 -0.479395 7.64188 0.873395
1 -0.67023 6.73959 0.794813
1 -0.101042 6.01926 0.663527
1 -0.294123 5.56297 -0.146779
1 0.391136 6.12099 -0.42227
1 -0.245361 6.79425 -0.22262
1 0.0866399 7.36469 -0.874424
1 0.524372 7.85218 -0.209031
1 1.04774 8.1389 -0.962836
1 4.79275 6.7025 8.63492
1 4.43815 6.89855 7.73592
1 5.10407 6.73705 7.06725
1 5.01574 5.87227 6.6553
1 4.51551 5.0939 6.49066
1 3.71969 4.74237 6.0768
1 4.37999 4.58384 5.48415
1 3.81454 4.15003 4.88736
1 3.53442 4.1489 3.96096
1 3.63447 3.2028 4.01592
1 -7.28996 -6.6791 2.91352
1 -6.78281 -7.30866 2.36206
1 -6.37926 -8.00382 2.83736
1 -6.96012 -8.59254 3.29385
1 -7.31666 -8.06287 4.05442
1 -6.36177 -8.09556 3.85501
1 -5.99022 -8.99651 4.05784
1 -6.18499 -9.94914 3.78014
1 -5.60574 10.1897 4.18708
1 -5.18221 -10.2729 4.952
1 -9.83558 -3.36296 2.7383
1 10.1705 -2.84988 2.54219
1 9.59239 -2.60724 1.71502
1 9.54324 -3.5591 1.52934
1 9.65648 -4.56558 1.71371
1 8.91667 -4.28572 1.18583
1 8.10385 -4.48618 1.64106
1 8.16274 -5.36399 1.27279
1 7.60043 -6.11271 1.34115
1 7.55267 -6.80954 2.05834
1 9.08867 8.7434 2.04715
1 9.19014 9.6131 1.57317
1 8.32996 9.56481 1.93332
1 7.63422 10.0761 2.35938
1 7.18533 9.42041 2.89298
1 6.58359 10.0831 2.44496
1 6.03648 9.98951 1.69155
1 6.56715 9.62773 0.980225
1 5.84206 9.51146 0.22692
1 5.47297 8.80528 0.758452
1 1.83536 1.93867 -5.10422
1 2.68102 2.00907 -5.54594
1 2.06941 2.66684 -5.82701
1 1.116 2.56745 -5.67913
1 0.873121 2.48715 -4.72368
1 0.998384 2.48127 -3.68182
1 0.308591 2.58191 -3.00296
1 0.0737752 3.50451 -3.15809
1 -0.569937 3.17549 -2.47616
1 -0.787007 3.98354 -1.99627
1 -2.98965 -5.56451 -2.35121
1 -2.92968 -5.10735 -1.50234
1 -2.05918 -5.45141 -1.75475
1 -1.64214 -5.59308 -2.58994
1 -0.999144 -5.20746 -1.94661
1 -1.46797 -4.59558 -2.50604
1 -2.20055 -4.44011 -1.92154
1 -1.94026 -4.61968 -1.05656
1 -1.295 -5.35568 -0.942727
1 -0.437541 -5.02875 -1.12014
1 8.87008 9.61301 -9.6633
1 9.61019 10.209 -9.65684
1 9.07456 -10.0883 -9.0452
1 8.62509 -9.35023 -9.56074
1 8.61055 -9.30356 10.2566
1 8.46231 -8.44893 9.77519
1 8.13727 -7.62239 9.35328
1 8.77721 -7.26068 9.87302
1 9.17407 -7.92699 9.28283
1 9.52126 -7.05101 9.14918
1 2.43257 0.215721 6.60596
1 2.45064 -0.206278 7.44011
1 3.37357 -0.256286 7.41954
1 3.232 0.669706 7.51552
1 4.21924 0.728226 7.4454
1 4.48562 -0.240463 7.47386
1 4.9285 -1.07021 7.41883
1 5.74837 -1.56296 7.49368
1 5.21501 -1.57755 8.37568
1 6.03144 -1.32727 8.77745
1 -4.15872 3.46829 4.18971
1 -3.60047 2.84992 3.68547
1 -4.18632 2.57622 2.98343
1 -3.6604 3.39526 2.70643
1 -4.43827 3.61471 3.1962
1 -5.16531 3.16177 3.70142
1 -5.81242 3.67167 3.2297
1 -5.24843 4.17306 3.9049
1 -5.77996 4.87516 3.43599
1 -6.23366 4.95075 4.32351
1 -7.59779 -7.20811 5.69433
1 -8.0882 -7.91583 5.17947
1 -7.60089 -8.59665 5.68963
1 -6.77195 -9.13325 6.01396
1 -5.90033 -9.47296 5.85601
1 -6.39628 -9.8274 6.61423
1 -7.09197 -9.55571 7.14873
1 -7.89175 -9.09169 6.79738
1 -7.78352 -8.57386 7.60872
1 -8.25442 -9.35667 7.89864
1 5.12582 5.20218 3.72052
1 5.48492 4.40908 3.24847
1 6.13007 5.07173 3.20522
1 6.17569 5.5086 4.06414
1 6.75272 4.9294 4.62832
1 7.68879 4.67015 4.39357
1 7.58087 5.56298 4.77937
1 7.74984 5.45918 5.65868
1 8.35195 4.89103 5.16972
1 7.48815 4.43373 5.38452
1 -3.25107 1.2265 -9.42967
1 -3.24699 1.89323 -8.70772
1 -3.14295 2.07496 -7.78255
1 -2.93964 2.85651 -8.39096
1 -3.83277 2.81357 -8.66601
1 -3.88554 3.26666 -7.82451
1 -4.7209 3.51647 -7.26549
1 -4.66414 3.63329 -6.32995
1 -3.73409 3.87622 -6.26163
1 -2.81796 3.85942 -5.93682
1 1.78115 5.19547 5.37618
1 2.05451 5.87606 5.89152
1 2.68496 6.16254 6.53275
1 3.5025 5.75002 6.69415
1 2.91397 5.48937 7.3829
1 3.44617 5.09583 8.16213
1 4.11939 4.93942 8.8292
1 4.24689 4.23497 8.22959
1 3.8936 3.36071 8.15299
1 3.32466 2.53743 8.22482
1 -9.42036 -10.0249 5.06159
1 -8.84386 -9.98404 5.82375
1 -9.19931 10.3754 6.63544
1 -9.62179 9.95772 7.3882
1 -9.20221 9.08796 7.15147
1 -8.49274 9.74371 7.04349
1 -8.70293 -10.2255 7.61033
1 -7.72595 -10.3314 7.77131
1 -8.19565 10.1867 8.53662
1 -7.36414 10.3424 8.95901
1 9.80954 -9.44881 -8.41825
1 9.90978 -8.54301 -8.79738
1 9.74369 -9.00584 -9.56875
1 -10.2134 -8.47925 -9.94112
1 -9.82717 -7.75452 -9.39904
1 -9.29851 -6.99993 -9.30417
1 -9.93532 -6.48393 -9.82741
1 -9.419 -5.79008 -9.41835
1 -8.88584 -5.08571 -8.97141
1 -8.49918 -4.90755 -9.78617
1 6.30406 9.48202 6.63516
1 5.62268 9.74489 7.27208
1 4.79585 9.7515 6.8231
1 4.03116 10.1822 7.17948
1 4.76041 -10.1026 7.43887
1 5.32369 -10.0411 6.68538
1 4.48307 -9.7214 6.26668
1 4.72836 -9.09659 5.54525
1 4.76553 -9.99771 5.26125
1 4.05767 -10.0963 4.6674
1 -0.927647 8.20068 -8.69101
1 -0.973153 8.27929 -7.74699
1 -1.19303 9.03502 -8.21929
1 -1.20053 9.35213 -9.19701
1 -1.38932 9.02514 -10.0919
1 -2.22742 9.41735 -9.80573
1 -2.58916 8.59515 -9.85713
1 -2.43607 8.84014 10.0298
1 -1.79121 9.54677 9.87712
1 -2.07495 9.17606 9.07413
1 9.45321 9.16314 2.98733
1 10.2308 9.04103 3.45797
1 9.90549 9.85517 3.75991
1 9.71844 -9.99976 3.88068
1 9.31385 -9.43076 3.25292
1 8.95382 -9.30294 4.12021
1 8.65009 -9.25722 5.04856
1 9.10289 -8.43445 4.71175
1 9.03702 -8.12667 5.62136
1 9.58983 -7.8215 6.37153
1 -7.312 3.16297 6.21865
1 -6.77559 3.52378 5.54395
1 -5.93407 3.37653 5.90205
1 -5.54649 3.48617 6.7946
1 -5.81424 2.59753 7.04591
1 -6.28374 2.47996 6.22731
1 -5.90229 2.15872 5.4622
1 -5.86868 2.84321 4.79846
1 -5.90562 3.82426 4.80454
1 -5.05192 3.48012 4.8363
1 -3.34488 -7.07319 2.42428
1 -3.07306 -7.11195 1.51823
1 -3.47432 -6.32032 1.75385
1 -2.70039 -6.10289 2.19321
1 -3.46768 -5.56314 2.47118
1 -3.24316 -5.69709 3.41774
1 -3.05841 -5.13534 4.1306
1 -3.01264 -4.18097 4.30173
1 -2.33566 -4.34365 3.6367
1 -3.05968 -4.51705 3.05933
1 4.31434 -7.20291 8.92953
1 4.44279 -6.46568 8.22706
1 4.44408 -6.10068 7.35941
1 4.40783 -5.15853 7.14656
1 5.24389 -5.32387 7.62266
1 5.38722 -5.91356 6.89341
1 5.09774 -6.73819 6.43394
1 5.25752 -6.24469 5.63684
1 5.61319 -5.61296 5.00057
1 4.7358 -5.28852 5.01756
1 -5.04929 4.8887 -9.48013
1 -4.52159 4.43996 -10.2257
1 -4.04694 4.17278 9.76142
1 -3.9039 5.15034 9.67692
1 -4.85812 4.93339 9.65742
1 -4.58292 5.4675 8.88536
1 -4.57064 5.9829 9.67189
1 -3.93234 6.5753 9.98552
1 -3.57368 6.09567 -10.0459
1 -2.967 5.783 10.0335
1 9.24326 -8.76697 8.15694
1 8.50388 -8.48432 8.75149
1 8.95111 -9.15732 9.21927
1 8.06036 -9.45149 8.9866
1 7.74684 -9.9281 9.79176
1 7.77161 10.1029 9.21349
1 7.08311 10.0019 8.69395
1 7.51738 9.26377 8.2022
1 8.27591 9.32713 8.86047
1 8.86234 9.86369 8.32693
1 1.18528 -5.34264 -5.65813
1 1.22463 -5.55963 -4.73892
1 1.72923 -5.46507 -3.98595
1 2.58508 -5.4273 -4.32744
1 2.5726 -5.32165 -3.36347
1 3.15555 -4.50166 -3.15714
1 3.38345 -5.30303 -2.71767
1 3.38757 -5.76617 -1.899
1 3.66475 -6.48994 -2.54944
1 3.92002 -6.80878 -1.72424
1 6.16815 1.14786 -4.22689
1 6.8942 1.17754 -4.90959
1 7.16682 2.07252 -4.86871
1 7.68874 2.46921 -5.72438
1 8.07463 2.70208 -6.61297
1 7.86145 3.16146 -7.38314
1 7.57675 4.07781 -7.37855
1 7.59327 3.71253 -6.51619
1 7.95651 4.60435 -6.49124
1 8.33343 4.26477 -5.68398
1 8.23742 8.26902 2.40805
1 8.88442 8.1949 3.09553
1 8.63559 7.34806 2.63444
1 9.24702 7.14557 3.31402
1 10.095 7.30591 3.77471
1 -10.2129 8.09594 3.58227
1 -9.98025 7.41741 2.89658
1 9.90828 7.86364 2.78238
1 10.1966 8.65564 2.27311
1 -10.1061 9.44757 2.45989
1 2.56969 7.40766 3.1722
1 2.58424 7.6754 4.12661
1 3.11106 8.46812 3.95503
1 2.74246 9.40515 4.11346
1 2.12524 9.48191 3.32524
1 2.49489 10.3339 3.49382
1 3.31298 9.86562 3.32844
1 3.56412 -9.9756 3.69112
1 3.00442 -9.23491 3.4479
1 2.88485 -9.80944 2.63975
1 -8.22879 -0.981996 -4.19455
1 -8.36453 -0.0472159 -4.37265
1 -7.82732 -0.43121 -5.14093
1 -6.93061 -0.440821 -5.61329
1 -6.89241 -0.925459 -6.41405
1 -7.0043 -1.84078 -6.70304
1 -7.0016 -1.57996 -7.66871
1 -7.32928 -0.780934 -7.336
1 -7.69867 0.0829612 -7.531
1 -7.32443 0.079104 -6.61839
1 -2.70794 -8.98923 -1.04549
1 -2.48511 -9.87008 -0.960132
1 -3.30355 -9.95645 -0.532418
1 -4.18789 -10.0006 -0.0786041
1 -3.95309 9.84297 -0.244796
1 -4.22215 9.00711 -0.439362
1 -3.43091 8.73407 -0.853828
1 -3.94657 9.39114 -1.46086
1 -4.87712 9.61035 -1.62169
1 -4.90164 10.2635 -0.883355
1 4.29416 5.18987 9.90084
1 4.21838 5.83492 -10.0832
1 5.07206 5.82866 10.3515
1 4.94145 6.77616 10.3719
1 4.08112 6.94932 -10.068
1 4.06428 7.36367 -9.21328
1 4.59427 8.0235 -9.6513
1 5.38651 7.58916 -9.37988
1 5.50797 8.45046 -8.96611
1 6.35263 8.2747 -9.35139
1 -0.0554017 -0.565371 1.9377
1 -0.385173 0.0495505 2.56624
1 -1.05873 -0.571588 2.3311
1 -1.15877 -1.46432 1.98682
1 -1.82827 -1.07479 1.40166
1 -1.23164 -0.328981 1.29107
1 -1.14873 0.514402 1.76867
1 -2.07527 0.450622 1.50169
1 -2.42303 -0.240833 1.9672
1 -3.0374 0.262109 1.43154
1 -4.44778 -8.37067 -2.09286
1 -4.01415 -9.11849 -2.53731
1 -4.59148 -9.12365 -3.31775
1 -4.31995 -8.22198 -3.1556
1 -3.44041 -8.52307 -3.3898
1 -3.0055 -9.31568 -3.06852
1 -2.30952 -8.72044 -3.21648
1 -1.81528 -8.01379 -3.65238
1 -2.65452 -8.18717 -4.20455
1 -2.97326 -7.37426 -4.562
1 -5.16456 3.99131 -5.23178
1 -5.45598 4.86929 -4.85985
1 -5.60387 5.76866 -5.17265
1 -4.80554 6.29883 -5.27117
1 -3.98928 6.53183 -5.7428
1 -3.57239 6.72021 -6.63361
1 -4.16149 6.73708 -7.38881
1 -3.27093 7.07149 -7.50264
1 -3.00936 6.27733 -7.90877
1 -2.17068 5.83529 -7.74259
1 1.96095 5.37082 -5.92501
1 2.44901 5.00195 -5.23052
1 2.7411 5.32358 -4.36872
1 3.32592 6.05391 -4.43228
1 3.75663 6.68565 -3.87133
1 4.0459 7.23008 -4.60502
1 3.66867 7.82287 -3.91498
1 3.86938 8.12996 -3.05795
1 3.5446 7.43048 -2.49903
1 4.28486 7.73042 -2.02174
1 -0.879164 4.04113 -0.468105
1 -0.7708 3.168 -0.85582
1 -0.0881085 3.31125 -1.49873
1 0.217303 3.58664 -0.639958
1 0.817775 3.81867 -1.26659
1 1.63272 3.50503 -0.754371
1 1.95189 3.59253 0.192401
1 2.15869 3.12687 1.00219
1 1.22401 3.42484 1.22752
1 0.866066 3.01094 0.458591
1 -10.2768 6.3843 2.06101
1 -9.58582 7.13035 2.00153
1 -9.95105 7.19715 1.06666
1 10.2369 7.69826 1.72545
1 9.3345 7.47646 1.50673
1 9.62694 6.56634 1.32748
1 9.52643 6.77471 2.23594
1 8.73009 6.51327 1.71993
1 7.85115 6.73402 2.04694
1 7.89623 5.85736 1.72164
1 9.59451 4.8518 7.50425
1 10.0766 4.12343 7.87604
1 10.1793 3.27193 7.42467
1 10.1662 3.03183 8.33085
1 9.40883 3.03453 8.84748
1 8.9535 3.06222 9.72176
1 9.34439 2.24057 9.48225
1 9.48319 1.34291 9.73692
1 8.90398 1.40059 9.01198
1 8.28868 2.04914 9.33949
1 10.3211 -3.1923 1.01515
1 -10.2179 -3.6311 1.85863
1 -9.43671 -4.08302 2.04687
1 -10.1193 -4.69962 2.01721
1 -10.3467 -5.65088 2.05636
1 -9.63664 -5.4137 2.59705
1 -8.71178 -5.73434 2.57677
1 -8.37035 -5.69947 1.62323
1 -9.23188 -5.32755 1.62174
1 -9.47118 -6.24832 1.95774
1 9.2914 -2.75537 3.20177
1 9.42092 -2.02279 2.64462
1 8.63296 -1.89893 3.19406
1 8.29466 -2.64146 2.71996
1 8.51895 -2.77618 1.78007
1 7.9737 -3.28385 1.26208
1 7.41292 -2.54654 1.55892
1 7.34589 -3.10729 2.31571
1 7.23407 -2.3156 2.80789
1 7.62222 -1.90415 3.5671
1 -3.86122 -8.56591 -0.694853
1 -3.30691 -8.72122 0.0554646
1 -3.36133 -8.22225 0.856556
1 -3.90236 -7.45808 0.690294
1 -3.48966 -7.40422 -0.131136
1 -3.63109 -7.26318 -1.06037
1 -3.08119 -7.3862 -1.89063
1 -3.63688 -6.59605 -1.97583
1 -3.08264 -6.57467 -2.71838
1 -2.27228 -6.27982 -3.08207
1 -4.9291 -10.2691 7.02412
1 -5.67229 9.91415 6.67347
1 -6.67509 10.0213 6.76646
1 -6.6974 10.2773 7.68985
1 -6.46513 -9.96083 8.41714
1 -6.17476 10.0964 8.93409
1 -6.92802 9.36553 9.01871
1 -6.46669 9.29672 8.1761
1 -7.06603 8.56023 8.21971
1 -7.52153 9.10598 7.52355
1 7.42681 0.604134 -5.5743
1 6.91282 -0.217661 -5.76329
1 6.39534 -0.814003 -5.20689
1 6.72278 -1.46068 -4.60235
1 5.81982 -1.5151 -4.18269
1 4.92128 -1.3796 -4.07831
1 4.69302 -0.742422 -4.73539
1 4.24081 -0.980873 -5.56088
1 4.26389 -1.87699 -5.96265
1 4.38768 -2.89247 -5.89176
1 -9.52066 -2.0322 8.32149
1 -9.14018 -2.88875 8.66778
1 -8.96912 -3.39214 9.54161
1 -9.16928 -3.64181 -10.2327
1 -8.93999 -4.37488 9.95758
1 -8.23152 -3.94028 10.3373
1 -7.6727 -4.72607 10.0748
1 -7.5142 -4.58707 -9.72563
1 -8.25276 -4.01739 -9.43753
1 -9.11523 -4.063 -8.97455
1 -7.26563 -4.88371 0.681188
1 -7.11487 -5.73163 1.12074
1 -6.44665 -5.61661 0.482353
1 -5.71537 -4.95877 0.602269
1 -6.45576 -4.36232 0.433496
1 -7.25297 -3.78291 0.352047
1 -7.88362 -3.38902 -0.358947
1 -8.48228 -3.06727 -1.00241
1 -7.69495 -2.48082 -1.25264
1 -7.2963 -1.55067 -1.2789
1 4.82547 7.94776 0.732681
1 4.26377 7.89059 1.49404
1 3.89962 7.14852 1.99064
1 4.40219 6.30932 2.23554
1 4.5247 7.03124 2.85596
1 3.58002 6.95801 3.03206
1 3.39192 6.01822 2.96051
1 2.54174 6.31549 2.67292
1 2.00251 6.204 1.87223
1 1.72999 7.10513 2.17227
1 -9.72485 7.73095 5.60078
1 -9.63076 7.25702 4.76828
1 -9.66989 7.24638 3.79341
1 -8.97231 7.63286 3.16592
1 -8.36177 6.87911 3.19936
1 -8.25367 7.04909 2.21726
1 -8.2988 6.33166 1.6031
1 -8.15635 5.61669 0.995695
1 -8.96486 5.70551 0.497885
1 -9.86296 5.8339 0.167029
1 0.977152 -2.71985 1.23929
1 0.204265 -2.68444 1.77871
1 0.0683337 -1.75069 1.58807
1 -0.780978 -2.21384 1.32887
1 -1.38596 -2.97168 1.18778
1 -1.55434 -3.9377 0.884145
1 -2.37724 -4.36183 1.24794
1 -2.32821 -4.78016 2.08521
1 -2.17341 -5.40249 2.77027
1 -2.19777 -5.77714 3.62612
1 10.3437 -5.50815 -9.07777
1 -10.1567 -4.69447 -9.22868
1 -9.55949 -4.66962 -10.0154
1 -10.0426 -4.10762 10.0742
1 10.0514 -4.30509 -10.0221
1 10.2637 -3.51164 -9.62555
1 -10.0996 -3.45047 -8.78506
1 -9.74571 -4.12602 -8.20854
1 10.3565 -3.69123 -7.64948
1 -10.3327 -4.62883 -7.46377
1 2.6671 1.46814 -0.453127
1 3.07775 1.03069 0.316825
1 4.00515 1.03614 0.108029
1 4.23593 0.159698 -0.295625
1 5.04563 0.687763 -0.115907
1 5.42015 0.611113 -0.996153
1 4.47478 0.631711 -1.28469
1 4.58541 -0.287894 -1.38175
1 4.50429 -1.04986 -1.93072
1 4.44113 -1.29317 -2.88542
1 1.39645 -6.57958 5.65437
1 1.41538 -7.20351 4.95175
1 0.695636 -7.04018 4.3538
1 0.967244 -6.98739 3.40838
1 1.05593 -6.77921 2.37373
1 1.41956 -7.72186 2.28026
1 1.92872 -7.29131 2.8945
1 2.11663 -6.77557 2.087
1 2.49702 -6.15658 2.72748
1 1.55295 -6.08053 2.97012
1 -4.83007 8.58792 9.99903
1 -4.86485 8.2701 -9.74677
1 -5.40753 8.27356 -8.97467
1 -5.2792 9.22629 -9.12656
1 -4.62793 9.28446 -9.86654
1 -4.15656 9.56938 -9.07007
1 -4.02385 9.87569 -8.08725
1 -4.84855 9.92771 -7.60384
1 -4.28625 9.30504 -7.22089
1 -3.3952 9.45851 -7.00456
1 8.38582 -5.27275 -9.55003
1 9.34394 -5.15552 -9.34682
1 9.52952 -4.27206 -8.93745
1 9.02448 -4.15028 -9.7288
1 9.3454 -3.5595 10.3591
1 9.5566 -3.58698 9.40597
1 9.61648 -3.20629 8.53042
1 9.8115 -2.24293 8.33664
1 9.68605 -2.13645 9.27009
1 10.1777 -1.44711 8.7898
1 4.99402 -3.50999 -7.83328
1 5.13934 -4.22091 -7.132
1 4.78773 -4.47261 -8.00216
1 4.79828 -5.36536 -7.66666
1 4.68647 -6.08879 -8.33145
1 5.27012 -6.4047 -7.65107
1 5.23522 -6.16073 -6.68422
1 4.36862 -6.21077 -6.96831
1 3.69669 -5.59319 -6.64821
1 3.52485 -6.43331 -6.24892
1 -5.92332 -3.7736 1.17663
1 -6.33329 -3.21506 0.533206
1 -5.65987 -3.73444 0.0215605
1 -4.9382 -3.69368 -0.651408
1 -4.39638 -3.15122 -0.134864
1 -5.12565 -2.58116 -0.495969
1 -4.65181 -1.82269 -0.096471
1 -5.5782 -1.52199 0.182064
1 -5.76255 -0.577165 0.109481
1 -5.8297 -0.608648 1.10557
1 -3.0487 -9.75009 -7.17468
1 -2.8368 10.1231 -7.54676
1 -2.95672 10.1419 -8.48597
1 -2.16324 9.66888 -8.76041
1 -1.43988 10.24 -8.44132
1 -1.05142 -9.69571 -8.7703
1 -0.411826 -10.0673 -8.20572
1 0.272954 -9.75847 -7.54924
1 1.10902 -9.9482 -7.10868
1 0.237664 -10.1989 -6.60946
1 1.89009 -7.10853 -5.09806
1 1.38162 -7.91394 -5.3141
1 0.760254 -8.39981 -4.81908
1 1.02601 -8.89398 -5.59491
1 0.130417 -8.53267 -5.76729
1 -0.244194 -9.39867 -5.85277
1 -1.05718 -9.12099 -5.46208
1 -1.64111 -8.41196 -5.71333
1 -0.771712 -8.04002 -5.47732
1 -1.33894 -7.2789 -5.69755
1 -10.179 3.79316 0.457213
1 -10.1122 4.72519 0.332874
1 -10.028 4.3203 -0.524487
1 -9.52363 3.50417 -0.277417
1 -8.68897 3.8349 -0.570633
1 -8.01042 3.19094 -0.289723
1 -7.1921 2.89906 -0.6868
1 -6.79472 2.72407 -1.46553
1 -6.80705 2.30096 -2.41018
1 -7.02089 3.2386 -2.46255
1 -8.99781 -7.47118 2.72712
1 -9.96336 -7.40981 2.7729
1 10.2986 -8.03573 3.18681
1 9.86317 -8.5854 3.84997
1 10.2134 -8.87705 4.76936
1 -9.61136 -8.97344 4.68643
1 -9.90135 -8.8066 3.77046
1 -10.3032 -9.59243 3.32773
1 9.88584 -10.2085 2.83192
1 8.95645 10.1918 2.92965
1 2.5073 -9.3666 6.35579
1 3.38837 -9.78961 6.32702