8000
Atoms. Timestep: 0
1 0.512887 -4.58226 6.294
1 0.599498 -5.24798 7.00799
1 0.477956 -5.75208 7.86245
1 -0.0092174 -6.2326 7.23585
1 -0.858926 -6.68196 7.24471
1 -1.25848 -7.50747 7.18639
1 -0.883711 -7.45184 6.34168
1 -0.773918 -6.48852 6.11716
1 -0.584958 -6.93032 5.33406
1 -1.53626 -7.09301 5.53794
1 9.03005 4.4335 3.88373
1 8.58283 4.17935 4.66561
1 7.79881 4.6834 4.50231
1 7.11913 4.09393 4.82293
1 7.37792 4.51824 5.67389
1 6.71052 5.12788 5.34534
1 5.85293 5.37896 4.95283
1 6.32529 6.05495 5.34363
1 5.70514 6.27571 4.6706
1 5.87801 6.77555 3.84163
1 -6.40635 6.87203 4.6533
1 -5.69824 6.21011 4.73018
1 -4.81223 5.94343 5.16063
1 -5.00731 5.20186 5.81979
1 -5.17118 5.02403 4.89613
1 -6.00394 4.49559 4.97488
1 -6.84419 4.35194 4.65263
1 -7.80126 4.28689 4.38341
1 -7.63642 3.48243 4.89664
1 -7.8428 2.65149 4.43603
1 -3.97121 6.099 -3.97531
1 -3.9691 5.68086 -4.83475
1 -4.18329 4.84476 -4.48464
1 -4.60217 3.96473 -4.37234
1 -4.51413 3.0545 -4.63641
1 -4.24235 2.87763 -5.51007
1 -3.30789 2.5215 -5.58545
1 -2.91112 2.06389 -4.91128
1 -3.23294 1.40764 -5.55356
1 -4.11191 1.47908 -5.90594
1 6.95049 -3.36782 -10.063
1 6.80954 -2.38535 -9.90593
1 6.70671 -2.29216 -8.93348
1 7.17975 -2.17241 -8.01991
1 7.87373 -2.80314 -7.6014
1 7.36337 -3.07956 -6.8119
1 6.44689 -3.22581 -6.39988
1 6.69984 -4.10486 -6.73996
1 6.91325 -4.03119 -5.84153
1 7.34975 -3.32064 -5.45101
1 -8.46631 4.51378 3.46744
1 -9.16763 4.40188 2.77874
1 -8.80454 5.24212 2.45522
1 -9.38525 5.71742 1.8002
1 -8.69086 6.23739 2.031
1 -8.45996 5.90867 1.16766
1 -8.19563 6.55797 0.496563
1 -7.33344 6.08027 0.684922
1 -6.49506 5.58792 0.417804
1 -6.26709 6.46235 0.479165
1 2.34857 -2.86537 -2.03769
1 3.20531 -2.49399 -2.3098
1 3.01878 -3.12373 -2.98805
1 2.63644 -2.36395 -3.44632
1 2.45664 -2.64875 -4.32491
1 2.52952 -3.42904 -3.80186
1 3.39638 -3.13403 -3.97558
1 3.89562 -3.67486 -3.33085
1 3.9504 -4.56611 -2.962
1 4.01751 -4.93413 -3.92505
1 -9.11244 6.17654 -7.08209
1 -8.25973 6.42952 -6.75195
1 -8.26228 5.64194 -7.25533
1 -7.55439 5.02475 -7.1484
1 -7.43603 4.36575 -7.82143
1 -8.34037 4.69409 -7.83744
1 -8.59483 5.49118 -8.27283
1 -8.28248 6.40345 -8.16271
1 -7.48779 6.25877 -7.71721
1 -7.57834 5.42478 -8.1341
1 6.0268 9.0006 1.98623
1 6.01451 9.4763 1.09385
1 5.42192 9.25573 0.441502
1 6.16734 8.64942 0.371065
1 6.60038 8.94761 -0.365489
1 7.49629 9.22862 -0.509654
1 8.19466 9.15596 0.122224
1 8.47215 10.0345 0.387415
1 8.80827 10.195 1.24166
1 9.05454 -9.77774 0.67067
1 6.76833 7.37864 8.83424
1 5.75783 7.7195 8.793
1 5.36963 7.7287 9.64198
1 4.71801 7.06073 9.40736
1 4.6739 6.09593 9.60935
1 3.88335 6.46167 9.93969
1 4.5233 6.17296 -10.1553
1 4.96553 5.47678 -9.62662
1 5.31769 5.4879 10.1949
1 6.11726 4.96678 10.0547
1 -6.42372 -9.2554 -8.33382
1 -5.5183 -8.98093 -8.15293
1 -5.41676 -9.92197 -7.94132
1 -5.2252 10.2061 -8.67335
1 -4.46652 9.81775 -9.2871
1 -4.25758 10.0261 -8.42778
1 -4.44464 9.08978 -8.15772
1 -4.69769 8.65291 -7.381
1 -4.90559 7.88935 -6.85215
1 -5.07844 6.99909 -6.56697
1 -0.419286 -4.03857 8.60996
1 -0.250447 -3.62195 7.76949
1 0.606751 -3.16909 7.69066
1 1.58286 -3.43219 7.78458
1 1.05478 -3.92871 8.41271
1 1.64515 -4.72702 8.36956
1 1.26127 -4.53558 9.20097
1 1.06844 -5.42673 8.80315
1 1.70603 -5.77105 8.1682
1 2.44383 -5.47733 7.66217
1 2.54874 7.61409 2.83184
1 3.20945 8.30167 2.55998
1 4.10761 8.15844 2.76928
1 4.13592 8.49537 3.75477
1 4.07509 7.73964 4.41458
1 3.462 7.23901 4.89499
1 3.01792 7.99276 4.57693
1 3.14749 8.09996 3.61628
1 3.59653 7.22419 3.74729
1 2.72091 7.12226 3.98189
1 8.26876 -7.57604 5.78474
1 8.35693 -6.59185 5.94668
1 8.61634 -6.1399 6.73853
1 9.38949 -6.2805 6.22144
1 9.37546 -5.41771 6.68406
1 9.22567 -4.85685 7.44534
1 9.40186 -4.02523 6.95964
1 8.67438 -3.92761 6.30004
1 8.05256 -3.59144 5.63226
1 8.00776 -2.60483 5.54324
1 -5.14836 4.6779 -7.54272
1 -4.17285 4.88451 -7.35485
1 -4.13779 3.91217 -7.38939
1 -4.09313 4.07962 -8.37556
1 -3.52599 3.29686 -8.19923
1 -2.82263 2.71838 -8.28818
1 -2.21382 3.12515 -7.63495
1 -1.53954 3.0508 -8.33833
1 -0.994211 3.82127 -8.27672
1 -0.738669 3.42369 -9.11519
1 -1.23831 -8.9738 4.8286
1 -0.948201 -8.24503 5.43836
1 -0.371985 -8.3891 6.20916
1 0.107096 -7.63373 6.56023
1 0.683469 -6.88559 6.79754
1 0.227486 -6.82737 5.96381
1 0.762447 -6.22266 5.39825
1 0.292016 -6.46207 4.54644
1 -0.245972 -5.88093 5.15575
1 0.0383488 -5.60792 6.00501
1 -6.13339 2.00502 -3.61422
1 -7.01377 2.40396 -3.48066
1 -7.15496 2.31312 -2.50532
1 -6.21425 2.09539 -2.51613
1 -5.34268 2.36976 -2.76611
1 -5.3452 1.75856 -1.99665
1 -6.14401 1.32154 -1.60973
1 -5.78399 0.545131 -1.22689
1 -6.68151 0.318404 -1.44061
1 -6.98015 -0.115909 -2.29121
1 -7.86254 -2.48233 -6.91571
1 -7.27786 -1.95644 -6.35707
1 -6.40551 -1.61154 -6.3784
1 -6.24111 -2.56926 -6.40109
1 -5.85254 -3.46097 -6.49094
1 -6.74371 -3.52069 -6.09231
1 -6.51514 -3.69632 -5.15082
1 -5.81441 -3.12737 -5.42888
1 -5.77975 -2.17409 -5.28522
1 -5.22556 -2.02997 -6.04227
1 -7.51389 9.80961 7.44898
1 -7.2711 9.24239 6.7266
1 -7.02112 10.1395 6.51652
1 -7.32008 -9.82752 6.1197
1 -7.79785 -9.89237 5.2885
1 -7.82351 9.8946 5.30796
1 -8.06073 9.17509 5.8916
1 -7.62338 8.36612 5.89857
1 -8.18771 8.04271 6.57324
1 -7.90337 8.63241 7.27837
1 5.78721 -6.41341 6.68773
1 5.91401 -6.0821 7.61585
1 6.70937 -5.99923 7.05025
1 6.21994 -5.20831 6.88451
1 5.83066 -5.2004 6.05868
1 5.09519 -5.84267 5.86842
1 4.70554 -4.96395 5.85788
1 5.0049 -4.53018 6.66083
1 5.15818 -5.44026 6.82006
1 5.39323 -5.09514 7.60481
1 9.50601 7.29573 2.57671
1 9.30386 6.50842 2.02106
1 8.48702 6.93768 1.88886
1 8.1484 6.07417 2.0188
1 7.29121 5.6869 1.89665
1 6.38008 5.71972 2.22246
1 5.94511 4.84198 2.35079
1 5.73806 3.85008 2.42338
1 6.39905 4.07317 3.18757
1 7.03923 3.41719 2.83145
1 -5.58005 -1.43544 -6.9148
1 -5.62957 -0.90065 -7.68761
1 -5.99439 -0.082272 -8.03409
1 -5.82317 0.439135 -8.85404
1 -5.79328 0.294013 -9.81795
1 -5.72312 -0.397565 10.274
1 -6.48661 0.0572065 10.2025
1 -7.11785 0.660331 -10.2727
1 -7.45113 0.188035 9.75171
1 -8.13489 0.0830828 -10.2562
1 -2.39948 9.12291 3.77117
1 -2.77521 9.96991 3.82985
1 -3.34857 9.41955 3.35692
1 -2.95156 8.59525 2.92893
1 -3.5808 7.87777 2.91789
1 -4.12176 8.63839 3.14274
1 -3.73835 9.10081 2.4246
1 -4.43354 9.57114 2.9086
1 -3.77804 10.3409 2.97271
1 -4.01224 10.1476 3.89432
1 -5.73457 -2.5578 4.78782
1 -4.8829 -2.91347 4.44598
1 -4.48412 -2.55296 3.65246
1 -4.79248 -1.8189 4.26529
1 -4.17452 -1.2255 4.71388
1 -3.59258 -1.69879 4.14652
1 -2.77318 -1.63722 3.66912
1 -3.26138 -2.49224 3.44589
1 -2.42767 -2.83217 3.79913
1 -2.17234 -2.70689 2.89758
1 -6.09945 0.797351 -6.05969
1 -5.86406 -0.0351213 -5.74252
1 -5.99439 -0.563608 -4.96381
1 -5.70602 -1.09434 -5.73689
1 -5.13458 -1.25172 -4.95411
1 -4.77534 -0.4723 -5.41439
1 -4.08151 -0.602131 -4.80027
1 -4.32491 -1.09042 -3.97414
1 -4.02521 -0.578325 -3.14353
1 -3.3936 -0.934912 -3.81445
1 -3.95358 8.73189 -9.27055
1 -3.34488 9.22514 -8.69694
1 -2.59734 8.63972 -8.68906
1 -2.18541 9.16739 -9.3376
1 -2.25791 9.64878 -8.4904
1 -1.95967 -10.211 -8.21355
1 -1.76763 -9.42605 -8.71586
1 -2.32464 -8.91011 -8.16658
1 -2.70363 -8.75441 -7.31657
1 -2.42262 -9.44124 -6.72446
1 3.76176 2.00819 -5.38503
1 4.10354 2.66724 -4.74084
1 5.03877 2.45847 -4.85731
1 5.19463 3.30621 -5.23606
1 5.61893 4.13794 -5.17234
1 6.41676 3.82093 -4.6245
1 6.17378 4.71869 -4.6128
1 6.8079 4.82292 -5.33501
1 7.76551 4.77491 -5.32588
1 8.30605 4.2278 -5.91923
1 -8.65588 3.35689 5.337
1 -8.76187 2.52588 5.83871
1 -8.60555 1.72581 5.32952
1 -8.17074 1.10013 5.99103
1 -7.52141 1.41606 5.38622
1 -6.59384 1.61005 5.26541
1 -6.86904 2.32868 5.8232
1 -5.91332 2.55125 5.73613
1 -5.24411 2.73891 5.08377
1 -4.75282 2.93996 5.86647
1 -0.826837 -4.37139 -6.6781
1 -0.151317 -4.91131 -7.07326
1 0.802893 -4.81418 -7.19596
1 0.387051 -5.50998 -7.7168
1 0.92674 -6.00106 -7.02293
1 0.822973 -6.40598 -6.19267
1 0.00511706 -6.81661 -5.86723
1 -0.0316221 -7.60536 -6.45164
1 0.317146 -6.93196 -7.01228
1 0.692458 -7.6835 -7.38648
1 6.87898 2.83247 -2.51031
1 5.935 2.97048 -2.85151
1 6.17042 3.82939 -2.50592
1 5.77072 4.56644 -2.01146
1 4.99774 4.43252 -2.55056
1 5.62616 4.67977 -3.19859
1 5.45199 5.4617 -2.72739
1 5.00114 5.54981 -1.88093
1 5.05711 4.98291 -1.1494
1 4.98038 4.35046 -0.47224
1 -3.25082 -6.79939 3.65258
1 -3.96687 -6.34139 4.01713
1 -3.50781 -5.54633 4.03442
1 -3.33124 -5.61892 3.07034
1 -4.21624 -5.93145 2.95638
1 -5.04223 -5.54039 2.46052
1 -5.05115 -5.36042 1.49028
1 -5.38962 -5.28312 0.654381
1 -6.14741 -5.21694 1.15875
1 -6.47569 -4.919 0.280458
1 -2.39369 6.40642 0.409426
1 -2.10167 7.14741 -0.157647
1 -2.07952 7.62226 0.613142
1 -2.57812 8.14543 -0.0162198
1 -1.82462 8.10473 -0.624528
1 -0.928052 8.34446 -0.552812
1 -0.272689 7.73644 -0.208991
1 -0.343503 8.12984 0.69075
1 -0.780717 8.35894 1.50972
1 -1.25001 8.55471 0.679983
1 5.08337 -2.10261 -5.19239
1 5.85572 -1.93902 -5.66555
1 6.65145 -1.36741 -5.46719
1 7.16418 -2.17477 -5.28481
1 8.03723 -1.95698 -5.07268
1 7.78463 -1.28916 -4.45311
1 6.94545 -0.825205 -4.33125
1 7.19919 -0.453567 -3.44107
1 7.80663 0.112165 -2.80646
1 8.10112 0.965882 -3.11927
1 -9.68774 -5.4208 -6.82003
1 -8.89703 -5.66981 -7.19747
1 -9.28538 -6.31438 -6.64235
1 -8.81634 -7.13544 -6.3188
1 -9.23725 -7.57281 -7.11784
1 -8.85659 -8.27163 -6.54641
1 -8.23298 -8.42356 -5.88888
1 -9.12998 -8.51542 -5.48011
1 -9.31667 -7.58786 -5.19211
1 -8.49954 -7.85441 -4.78945
1 -9.82439 2.61184 -7.26978
1 -10.2415 3.39389 -7.02531
1 -9.55327 3.7974 -7.63905
1 -9.18112 3.90719 -6.74833
1 -8.22985 4.05631 -6.94066
1 -8.40536 4.54218 -6.17538
1 -9.30193 4.62973 -5.88128
1 -10.0353 4.45757 -6.45902
1 -10.3677 4.51728 -7.40421
1 9.74297 3.85301 -7.49041
1 -4.56037 4.28371 -5.55943
1 -3.61546 4.42253 -5.38427
1 -3.90408 4.73575 -6.25169
1 -3.28341 4.67785 -7.05463
1 -3.02263 4.12427 -7.7186
1 -2.61745 4.95385 -7.84082
1 -2.49595 5.54007 -7.0994
1 -1.92403 6.24467 -7.33008
1 -1.43145 5.54271 -7.64057
1 -1.68251 4.62061 -7.48773
1 1.55543 0.717332 -8.18666
1 1.41424 1.21642 -8.99187
1 0.615149 0.911486 -8.63134
1 -0.161742 1.01002 -7.96048
1 -0.859052 0.493148 -7.53245
1 -0.98015 1.33902 -7.07987
1 -1.87567 1.1604 -7.28409
1 -1.95281 1.98864 -6.79839
1 -2.42552 2.13069 -7.57468
1 -2.97367 1.35433 -7.34049
1 -0.123736 -5.33201 -0.600036
1 0.412606 -4.47857 -0.542552
1 -0.18188 -4.13268 -1.20036
1 -0.797975 -3.61911 -0.596791
1 -1.12496 -3.84274 -1.43832
1 -0.888543 -4.57689 -2.0504
1 -1.55444 -5.12499 -2.45815
1 -2.35332 -5.1339 -3.0335
1 -3.23609 -4.73384 -3.23256
1 -3.05837 -5.07226 -4.07465
1 -8.29736 -1.96595 8.27943
1 -8.59901 -2.8044 8.64717
1 -9.14325 -2.74553 9.4585
1 -8.35898 -3.24019 9.69458
1 -8.07565 -3.9704 9.13246
1 -8.68372 -4.74035 8.77785
1 -9.47768 -5.2002 8.65494
1 -8.77508 -5.35814 7.9793
1 -8.62598 -5.42394 7.04965
1 -7.85978 -5.46109 6.51156
1 -8.19616 -6.08768 -7.81201
1 -8.29714 -6.76099 -7.10656
1 -7.39739 -7.09095 -7.30619
1 -6.6342 -7.27673 -6.78482
1 -6.70908 -7.59399 -5.87731
1 -7.29303 -8.32542 -6.12134
1 -7.87176 -7.63144 -6.471
1 -7.69639 -7.38815 -5.55684
1 -7.64327 -6.65401 -6.08004
1 -6.85072 -6.58258 -5.50361
1 -6.69488 2.68858 -8.49573
1 -5.75346 2.85493 -8.67713
1 -5.80969 2.24512 -9.39213
1 -6.15484 3.07118 -9.67624
1 -6.22447 3.74704 -9.00645
1 -6.83124 4.40592 -9.40584
1 -7.71406 4.08512 -9.76577
1 -8.12094 4.86786 -10.1726
1 -7.71047 5.39105 -9.44818
1 -8.06769 4.77218 -8.85302
1 3.72143 -7.17172 9.92879
1 2.80438 -7.1142 9.61835
1 2.17579 -7.79498 9.63624
1 2.15275 -8.42434 -10.2881
1 1.38396 -8.56923 9.93819
1 2.26555 -8.91344 9.6156
1 1.91533 -8.5106 8.7503
1 0.961364 -8.55073 8.83288
1 0.664201 -8.02911 8.09299
1 1.01359 -7.88117 7.23381
1 9.50431 -0.486308 -5.32152
1 9.52879 0.340311 -5.74929
1 10.2847 0.84819 -6.08813
1 -9.94093 0.51859 -6.87422
1 -9.80236 -0.0260554 -6.02572
1 -8.87871 0.28034 -6.07776
1 -8.99168 -0.182129 -6.89828
1 -8.54143 0.564641 -7.35417
1 -9.26593 0.371522 -7.94989
1 -9.10132 -0.239137 -8.6535
1 -1.01902 2.71055 -3.70199
1 -0.561508 3.08942 -4.50886
1 0.204025 3.02505 -5.13874
1 0.363504 3.76834 -4.55593
1 -0.48842 4.14978 -4.74969
1 -0.210375 4.72088 -5.43764
1 -0.586972 5.31988 -6.14843
1 -1.08526 4.49775 -6.37166
1 -1.4523 5.11462 -5.64313
1 -1.59564 5.63293 -6.50323
1 7.92396 3.44547 1.29128
1 8.45166 3.34914 2.07763
1 8.85067 2.69261 1.52766
1 8.0813 2.27513 1.11333
1 7.20936 1.92307 0.827484
1 7.11747 2.71543 1.3062
1 6.60278 2.89336 2.08256
1 6.99062 3.70334 1.7642
1 6.24759 3.6095 1.16464
1 7.04992 3.48716 0.588418
1 9.44312 0.827975 4.97446
1 10.1424 1.45587 5.2663
1 -9.72258 1.06845 5.11899
1 -9.60236 0.656951 4.28232
1 10.1926 0.626659 4.25429
1 9.47355 -0.0696332 4.33389
1 10.2596 -0.573417 4.61025
1 -10.3538 0.160329 5.26372
1 -9.63692 -0.289918 5.83247
1 -9.42001 -0.387758 4.83303
1 -4.47554 2.71557 -7.64008
1 -4.7915 3.26788 -8.35606
1 -5.4054 3.9583 -8.20535
1 -5.06285 4.75406 -8.63003
1 -4.29163 5.15535 -8.31895
1 -4.59498 6.02991 -8.6531
1 -3.94435 6.56364 -9.06845
1 -4.5057 7.35538 -9.1051
1 -4.83583 8.211 -9.35378
1 -5.62858 8.20854 -9.87823
1 3.70733 -3.34846 -10.2741
1 4.64467 -3.33563 -10.0798
1 5.12913 -4.11425 -10.2344
1 4.89096 -4.62161 -9.4613
1 4.73242 -5.24986 -10.1568
1 4.56398 -5.04583 9.69558
1 3.82073 -5.16603 10.3094
1 4.01698 -4.31998 -10.1443
1 4.03156 -3.87468 -9.27457
1 4.15154 -2.96274 -9.02102
1 -6.5661 5.61462 -3.4481
1 -7.21826 5.34124 -2.89529
1 -7.06125 4.98722 -1.99353
1 -7.23919 4.17647 -1.54533
1 -7.87676 3.76701 -0.91703
1 -7.71845 4.6353 -0.612043
1 -8.02104 4.25688 0.258121
1 -8.8611 4.86048 0.0428228
1 -9.54902 4.52565 -0.637623
1 -8.86746 5.07752 -1.07401
1 7.4971 -7.62267 -9.98734
1 6.6775 -8.05449 -9.68184
1 5.65984 -8.06415 -9.89618
1 5.59839 -8.56446 10.0427
1 4.9604 -9.23404 10.2437
1 5.62434 -9.68255 -9.98165
1 5.68269 -10.2647 10.0244
1 5.08124 9.72909 10.1653
1 5.2716 9.65579 -9.63256
1 5.03792 10.1993 -8.81365
1 5.26478 9.82038 -4.58066
1 5.02269 8.98943 -4.91953
1 5.7277 8.59348 -4.41613
1 5.91963 7.90716 -3.84171
1 6.47476 7.87363 -4.53478
1 7.309 8.15695 -4.4061
1 7.9293 8.64806 -4.94919
1 7.8397 7.68952 -5.08993
1 8.52374 7.23306 -5.59598
1 8.4707 7.5238 -6.5261
1 -3.76975 6.81939 -3.21226
1 -4.01896 7.23223 -4.01258
1 -2.99066 7.41553 -3.87299
1 -2.84799 6.55238 -4.34998
1 -2.96111 5.92141 -5.07057
1 -2.18323 6.23069 -5.50572
1 -2.7054 6.66798 -6.11663
1 -3.1281 6.64993 -6.97926
1 -2.89899 7.61924 -7.06833
1 -3.832 7.77165 -7.19054
1 8.46533 -1.39525 -5.98711
1 9.01679 -1.40905 -5.22892
1 9.61917 -1.27423 -5.99803
1 -10.3681 -0.785816 -6.19116
1 9.8343 -0.165586 -6.64656
1 9.3824 0.658361 -6.75441
1 10.0821 0.971261 -7.34923
1 9.6879 0.129995 -7.6021
1 9.76665 -0.820471 -7.83555
1 10.3017 -0.30892 -8.48546
1 -1.3065 7.3525 -2.82789
1 -0.712402 7.37536 -2.04095
1 -0.037421 6.72068 -2.10253
1 -0.0250999 6.93332 -1.13333
1 0.826439 6.55304 -1.117
1 1.67788 6.58495 -1.52779
1 1.26946 6.52878 -2.39153
1 0.552548 5.90405 -2.65852
1 1.46855 5.44277 -2.682
1 2.38316 5.18837 -2.54694
1 -3.86248 -0.327006 0.714837
1 -4.39337 -0.415362 1.49184
1 -4.50165 -0.64003 2.41635
1 -3.91667 -0.217272 2.99709
1 -3.87141 -0.787602 3.73233
1 -3.00078 -0.467549 4.12402
1 -3.04581 -0.929361 4.97626
1 -3.27134 -1.89629 5.12324
1 -3.89032 -2.61145 4.96678
1 -4.14224 -3.09193 5.75918
1 -3.34841 -6.07899 -4.48925
1 -3.3125 -6.9537 -4.20338
1 -4.11092 -7.09758 -4.70986
1 -3.57538 -6.86171 -5.52129
1 -4.04684 -6.37574 -6.23495
1 -4.49707 -7.21248 -5.89995
1 -4.76679 -6.88247 -6.72786
1 -4.79384 -7.00982 -7.69674
1 -5.04088 -6.68181 -8.4962
1 -5.88357 -6.57279 -8.062
1 -6.82489 -2.43973 -5.59527
1 -7.39842 -3.14329 -5.255
1 -7.15222 -3.12742 -4.3747
1 -6.66567 -3.57922 -3.64921
1 -7.54202 -3.42672 -3.41212
1 -8.49942 -3.75557 -3.44182
1 -9.224 -4.40735 -3.46018
1 -9.82348 -4.87092 -4.01796
1 -9.83942 -3.89867 -4.03212
1 -9.00189 -4.20738 -4.40981
1 -10.2268 3.35573 7.39488
1 9.79067 2.79009 7.11462
1 9.50779 1.93554 7.49351
1 9.78886 2.39218 8.32837
1 9.37282 2.72381 9.09689
1 10.1084 2.3758 9.70396
1 10.3118 3.06947 9.06006
1 -10.0747 3.73583 8.50212
1 -9.53754 3.92821 9.25089
1 -9.89883 3.49878 10.0174
1 9.7827 8.84412 -5.37288
1 9.26396 9.38733 -5.99745
1 8.65982 8.68648 -6.22299
1 9.31166 8.08679 -5.8511
1 8.86216 8.11787 -5.05551
1 9.5165 8.23429 -4.31343
1 10.3467 8.79918 -4.50608
1 -9.76665 9.09734 -5.16611
1 -8.89207 8.82313 -4.80619
1 -8.90563 9.80458 -4.9861
1 1.4208 8.33915 6.7491
1 1.94565 8.79377 6.00926
1 2.40656 8.20897 5.46318
1 1.51321 8.32924 5.13697
1 2.1445 8.62523 4.53597
1 2.55873 9.16702 5.19832
1 2.9339 10.0071 5.37282
1 3.43639 9.67821 6.10808
1 2.94613 8.84255 6.27042
1 3.85256 8.6516 6.51818
1 1.7266 -7.1753 7.0008
1 2.07281 -6.76074 7.785
1 1.93253 -6.8088 8.73143
1 1.14719 -7.38906 8.91361
1 1.43875 -7.24484 9.8305
1 0.663214 -7.76713 9.78815
1 -0.0926572 -8.28591 9.50574
1 0.460949 -8.99607 9.95701
1 0.323094 -9.40767 9.08456
1 1.07617 -9.94475 9.30279
1 -5.43766 -4.68538 6.38042
1 -4.61617 -4.44436 6.82709
1 -4.44917 -5.32837 7.05143
1 -4.30039 -6.17997 6.6407
1 -5.09828 -6.57423 6.36284
1 -5.39067 -5.69263 6.55103
1 -6.32183 -5.62278 6.72726
1 -7.06086 -6.07685 7.18187
1 -6.80328 -6.51589 7.98746
1 -7.1837 -7.27834 8.51587
1 -0.117054 0.254179 -3.22282
1 0.0961982 -0.649189 -3.10306
1 0.50213 -1.49332 -3.30173
1 0.295309 -1.77415 -4.1893
1 -0.115099 -1.06392 -4.66927
1 -0.941947 -1.57837 -4.62392
1 -1.88185 -1.34973 -4.54013
1 -1.67449 -1.42798 -3.58158
1 -2.38706 -0.746952 -3.97833
1 -3.00697 -0.815195 -4.75389
1 -2.2601 6.42117 6.54599
1 -2.68579 7.18189 6.14478
1 -3.48641 6.70722 5.94374
1 -3.85789 5.84298 5.90697
1 -3.91545 5.78799 6.87012
1 -3.50165 4.9947 7.22828
1 -3.19727 5.6688 7.81963
1 -2.40081 6.21684 7.69171
1 -2.48233 5.4169 7.17554
1 -2.79218 5.42489 6.26657
1 9.24938 -2.95907 -1.72032
1 9.75204 -2.16395 -1.6073
1 10.3427 -2.98748 -1.61469
1 -10.048 -3.88921 -1.49484
1 10.2578 -3.92339 -0.615756
1 9.3979 -3.52157 -0.488839
1 8.95333 -4.27913 -0.848171
1 9.51138 -4.65529 -0.215055
1 9.46633 -5.61302 0.0130328
1 9.17808 -6.48303 -0.247647
1 2.32788 1.56723 10.1345
1 1.71318 1.17317 -10.0613
1 1.18822 0.381269 -10.3668
1 0.988087 -0.103082 9.54435
1 1.73609 -0.655994 9.48035
1 2.0231 -0.202425 8.69711
1 1.40369 0.562714 8.71506
1 1.89842 0.583324 7.8495
1 1.51847 0.0989353 7.12207
1 1.53734 -0.572184 7.746
1 10.3679 -4.09256 6.41526
1 -10.257 -4.41073 5.48755
1 10.093 -5.23129 5.85904
1 9.34299 -4.61368 5.92021
1 9.53074 -3.87124 5.34478
1 8.74343 -4.2 4.92357
1 8.51933 -4.33506 3.99438
1 7.67431 -4.10177 4.49859
1 6.72792 -4.46707 4.46144
1 6.69287 -4.1712 5.39589
1 9.12326 2.36049 0.5149
1 9.7834 3.04182 0.623378
1 10.3493 3.42348 -0.0516943
1 -10.1208 2.64513 -0.589006
1 -9.92826 1.88789 -1.11144
1 -8.95498 1.89997 -1.23977
1 -9.28973 1.30227 -1.87576
1 -8.84933 0.475109 -1.61584
1 -9.30077 -0.0750915 -0.951611
1 -9.35848 -0.884267 -1.49149
1 -5.23195 -6.87129 -9.60371
1 -5.44138 -7.69443 -9.08145
1 -5.09782 -7.9456 -9.94126
1 -4.57258 -8.69506 -9.71972
1 -4.68538 -9.62442 -9.46087
1 -4.75059 -9.65864 10.3648
1 -4.28521 -8.90793 10.061
1 -3.54531 -8.96285 -10.0934
1 -2.98713 -8.37054 10.1468
1 -3.7717 -7.91383 9.89576
1 3.96404 1.47785 7.89351
1 3.74871 1.92837 8.71855
1 3.78015 0.957906 8.95085
1 2.94108 0.960572 9.50843
1 3.15721 0.47386 10.2995
1 3.4379 1.33961 -10.2347
1 4.11671 1.51741 9.85672
1 4.33322 0.559824 9.96076
1 3.94156 -0.205355 -10.3578
1 4.05676 -0.542151 9.51842
1 -1.07143 1.12473 7.74426
1 -1.36847 1.29609 8.63182
1 -2.05971 1.08943 9.32194
1 -2.42671 0.886244 10.1727
1 -2.18024 0.621241 -9.63423
1 -1.39311 1.21476 -9.59381
1 -1.60267 1.72951 -10.3686
1 -1.36066 0.783887 10.1604
1 -0.451076 1.03146 10.1658
1 -0.512221 1.73345 -9.92908
1 -3.60178 3.86386 -4.59034
1 -3.6194 4.4167 -3.7963
1 -3.78266 3.49626 -3.51589
1 -4.49311 4.14959 -3.2626
1 -4.56298 3.28615 -2.79406
1 -4.80224 3.88789 -2.0906
1 -5.49186 3.42574 -2.47223
1 -5.44268 3.70948 -3.43321
1 -6.28315 3.32349 -3.77204
1 -5.54327 3.37039 -4.38245
1 -5.2957 5.80884 8.792
1 -4.59876 6.0143 9.47759
1 -4.10016 6.89926 9.46105
1 -3.55474 6.17463 9.5691
1 -3.2774 6.46129 8.71768
1 -2.9517 7.18522 9.27819
1 -3.36301 7.35043 10.1834
1 -2.8192 7.90834 -10.0135
1 -3.71253 7.70866 -9.61422
1 -3.09536 7.33803 -9.02836
1 -8.69268 -4.0704 2.90923
1 -9.4503 -3.99741 2.34084
1 -8.63343 -3.96526 1.83994
1 -8.15063 -3.70506 1.04331
1 -7.33431 -3.1936 1.04824
1 -8.04208 -2.67161 1.41559
1 -8.48995 -2.13168 2.14207
1 -8.69491 -3.0546 2.32682
1 -9.3111 -3.22817 1.58906
1 -10.1615 -3.39696 1.92952
1 0.68589 9.07961 -5.81051
1 1.2334 9.47621 -5.10283
1 1.4445 -10.3427 -5.27434
1 2.10994 -9.72691 -5.45035
1 2.37603 -9.10224 -4.70618
1 1.42647 -8.741 -4.81753
1 1.75731 -7.92647 -5.24696
1 2.0251 -7.03782 -5.3134
1 2.57297 -6.24664 -4.98255
1 2.4614 -5.42027 -5.40483
1 -7.14189 -1.66099 4.12207
1 -7.4466 -0.755527 4.2397
1 -7.58342 -0.163114 5.02092
1 -8.173 0.562388 5.083
1 -8.57852 -0.213014 5.46758
1 -9.14266 0.643448 5.8291
1 -9.00085 0.043971 6.53963
1 -8.10216 0.231344 6.39141
1 -7.81445 -0.625845 6.87528
1 -7.345 -1.2571 6.31882
1 -6.84577 0.927137 -7.88601
1 -7.54025 0.191395 -7.79368
1 -6.95795 -0.576493 -7.5268
1 -6.97171 -0.707324 -8.55918
1 -7.27066 -1.49098 -8.99569
1 -7.7692 -1.86772 -8.2776
1 -8.52532 -1.43281 -8.67155
1 -8.03097 -0.623796 -8.69666
1 -7.54779 -0.355651 -9.4485
1 -6.79632 0.3056 -9.37882
1 9.85815 -0.265271 9.97917
1 9.35187 -1.08812 9.92798
1 9.30026 -0.99994 -9.87249
1 10.0163 -1.06649 -9.34803
1 9.3852 -0.596042 -8.81939
1 8.86376 0.204361 -8.82824
1 9.55724 0.769629 -8.45404
1 8.94835 1.06999 -7.76449
1 7.95552 0.991007 -8.08895
1 7.84537 0.608092 -7.18456
1 8.03404 -0.664182 4.57242
1 8.15502 -1.57028 4.95007
1 9.02696 -1.15224 4.84977
1 9.4013 -0.549212 5.47006
1 8.93562 -0.00722617 6.10977
1 9.80308 0.339575 6.03529
1 9.86597 -0.485537 6.45557
1 9.18215 -0.207555 7.18799
1 8.29597 -0.43015 6.78603
1 7.66529 -0.563901 7.46411
1 4.28301 5.02187 10.0554
1 4.14294 4.12585 9.70008
1 4.93288 4.48045 9.35066
1 4.59801 3.83405 8.66478
1 3.64814 3.77964 8.81933
1 3.2688 3.5083 9.68448
1 2.40756 3.51553 9.14063
1 1.69092 3.74863 9.77383
1 1.12674 3.05805 10.0158
1 0.715705 3.90254 -10.3462
1 6.26417 -7.28152 7.03061
1 6.49562 -7.12317 6.07088
1 6.30441 -6.16838 5.88497
1 6.5871 -5.453 5.23575
1 7.43332 -5.0204 5.16516
1 7.92464 -4.62037 5.92923
1 7.0723 -5.06248 6.16825
1 7.71716 -5.44751 6.78467
1 8.4716 -4.879 6.69289
1 8.44259 -4.22857 7.44314
1 -7.60234 -1.98345 10.0459
1 -7.24063 -1.81661 9.20227
1 -6.96244 -2.69694 8.92053
1 -7.51946 -3.31738 8.40886
1 -7.38914 -3.80054 7.55443
1 -6.69151 -3.53195 6.94754
1 -6.97998 -2.87372 7.55404
1 -6.38009 -3.29588 8.19451
1 -6.14324 -2.32108 8.1719
1 -5.7323 -1.45178 8.00071
1 5.29691 6.53165 -2.96241
1 4.49379 6.92859 -2.66493
1 4.24346 6.66931 -3.52677
1 3.46045 6.75801 -2.9552
1 3.32051 7.19932 -2.1022
1 3.11332 6.39305 -1.57355
1 4.04222 6.48531 -1.50983
1 4.77136 6.05233 -1.05071
1 5.03968 6.57416 -1.72343
1 4.46716 7.39495 -1.47514
1 8.65586 -0.293356 -5.74009
1 8.4145 0.482281 -6.2495
1 7.62924 -0.0541525 -6.15431
1 7.20326 -0.431891 -5.46343
1 6.62797 0.359247 -5.40198
1 6.21505 -0.11868 -4.70112
1 5.42027 -0.0340328 -5.06413
1 5.48833 0.928321 -5.23716
1 4.89872 1.43738 -4.62913
1 4.78306 1.63927 -5.60702
1 6.89981 8.3814 1.26889
1 7.82485 8.71394 1.24358
1 8.47852 9.34608 1.55588
1 9.14738 9.31051 0.855358
1 9.52757 9.08198 1.67276
1 9.28947 8.8052 2.55123
1 9.96419 8.18705 2.20514
1 9.89756 8.11103 1.26988
1 10.0189 8.81426 0.587401
1 -10.0273 9.43646 0.82237
1 5.09921 -0.872689 9.60416
1 4.59936 -1.31317 10.2904
1 5.30596 -0.910667 -9.88235
1 5.85854 -1.46524 10.2604
1 6.29814 -1.23422 9.41356
1 6.86371 -1.93062 9.09435
1 6.83795 -2.68061 9.70187
1 6.17425 -2.95133 8.97311
1 5.93404 -2.23318 9.59203
1 4.99843 -1.90909 9.47525
1 1.85019 1.96005 6.97256
1 1.62369 1.14697 6.53614
1 1.791 1.00292 5.53849
1 2.24183 0.94073 4.75764
1 2.48056 1.8445 4.9474
1 2.60117 2.1797 5.8163
1 2.72229 1.23899 6.07344
1 3.53552 0.719554 6.13748
1 3.82774 0.439262 7.00626
1 4.08051 0.299549 7.91439
1 -10.3608 4.37969 6.85964
1 9.47984 4.05973 6.81193
1 10.1558 3.50883 6.34942
1 9.58287 3.97776 5.77097
1 9.40881 3.17404 5.30561
1 8.41749 3.3022 5.26526
1 8.00616 3.47181 6.09734
1 8.95526 3.17492 6.25924
1 8.41363 2.51166 5.9152
1 7.78236 2.06525 5.38976
1 8.02916 -9.23587 -5.48115
1 8.87917 -9.37924 -5.87187
1 9.67356 -8.89805 -6.03724
1 9.5621 -8.02758 -6.36796
1 8.60354 -8.11347 -6.32612
1 8.81485 -8.45775 -7.2488
1 9.60741 -7.96122 -7.39396
1 8.8884 -7.54414 -7.85551
1 8.7477 -7.01385 -7.08728
1 8.07124 -7.66795 -7.12118
1 6.79461 5.50704 3.18995
1 7.5883 5.4648 3.76724
1 7.86407 6.3703 4.09751
1 7.29823 7.08788 4.4362
1 7.44596 8.04879 4.23893
1 6.67798 7.68739 3.69338
1 5.99492 7.45493 3.01417
1 6.28377 6.70917 2.52834
1 7.20928 6.51759 2.60564
1 6.86746 6.53697 3.50073
1 -1.22147 6.91008 -4.66424
1 -2.03771 7.10563 -4.14013
1 -1.75666 6.48151 -3.43042
1 -2.75093 6.50393 -3.38931
1 -2.94236 6.41372 -2.47066
1 -2.47535 6.93095 -1.79222
1 -1.64277 6.57323 -2.15693
1 -0.941903 6.36847 -1.46478
1 -0.238331 5.7832 -1.27162
1 -1.03792 5.49183 -0.888665
1 -4.2861 4.6284 -9.99926
1 -3.96332 5.23391 10.1306
1 -4.72062 4.66627 9.70775
1 -3.84675 4.182 9.78576
1 -2.91632 4.2439 9.83561
1 -3.1154 3.53051 9.29765
1 -2.54524 3.34631 10.1118
1 -1.99278 2.79132 -10.1786
1 -2.40678 2.33439 9.78738
1 -2.32892 2.69416 8.91392
1 -3.90681 -6.79077 5.15089
1 -4.50822 -6.12583 5.48964
1 -4.53701 -5.50291 4.74437
1 -4.86244 -6.39224 4.4889
1 -5.63263 -5.82492 4.28285
1 -5.4969 -5.92204 3.32452
1 -4.84716 -6.59762 3.46188
1 -5.2032 -6.61733 2.55544
1 -5.3353 -6.77422 1.57785
1 -6.02756 -6.16585 1.43872
1 8.4647 2.52175 -6.68037
1 8.15845 3.42115 -6.69666
1 8.78008 3.26843 -7.45411
1 9.58917 2.91431 -7.09797
1 9.23591 2.30972 -7.75728
1 8.29274 2.13235 -8.05042
1 8.78836 1.72252 -8.74037
1 9.69964 2.0005 -8.72027
1 -10.3565 1.52633 -9.27328
1 9.64016 1.01925 -9.46804
1 2.64236 -6.43468 4.17932
1 2.25508 -6.53008 5.05606
1 2.47869 -7.4565 5.27684
1 2.35638 -8.38692 5.00822
1 3.33688 -8.3095 5.13721
1 4.08871 -7.72108 5.1465
1 3.97131 -8.27733 4.37073
1 3.15266 -8.30047 3.87107
1 3.77225 -8.20825 3.17042
1 4.34377 -7.45539 3.55418
1 -9.61689 9.72429 10.358
1 -8.83391 9.34568 -10.0575
1 -8.18185 9.21228 -9.44281
1 -8.32451 9.19005 -8.50055
1 -8.86002 8.52998 -8.89071
1 -9.63442 8.10513 -8.56001
1 10.2633 8.1969 -8.08586
1 -9.80226 8.45912 -7.44943
1 10.3521 7.83731 -7.01472
1 9.36384 7.83883 -7.00081
1 7.75292 -0.968402 8.65291
1 7.17329 -0.732254 9.40836
1 6.64847 -0.499567 8.6773
1 5.89727 -0.376543 9.21708
1 5.64909 -0.0213491 8.35569
1 5.81202 0.913526 8.48418
1 5.02081 0.788028 7.81566
1 4.89243 1.19983 6.96466
1 4.63572 1.86641 6.2171
1 3.73974 1.82967 5.97411
1 -5.8092 -4.79715 9.51494
1 -6.43114 -5.5135 9.33616
1 -6.63269 -6.38864 9.00872
1 -6.73579 -6.28662 9.89617
1 -7.37262 -6.91418 9.55998
1 -8.05108 -7.50148 9.94484
1 -8.93993 -7.40155 9.66759
1 -9.52762 -7.01028 10.2875
1 -9.92606 -7.61089 9.55187
1 -9.42751 -8.39242 9.83346
1 7.84153 -8.73415 7.77709
1 8.25684 -8.09272 8.40552
1 7.84777 -7.4381 8.93177
1 7.28486 -7.50503 9.7369
1 6.46018 -7.89241 10.0647
1 6.37846 -6.96738 10.005
1 7.1958 -6.45439 10.1581
1 7.59933 -5.71054 -10.0856
1 7.12638 -4.93597 -9.78771
1 7.47724 -4.12478 -9.44541
1 5.31285 -3.20929 9.39528
1 4.78912 -2.66611 8.65507
1 4.32129 -2.96211 9.47222
1 4.2016 -3.92366 9.68229
1 3.38674 -4.09063 9.23358
1 3.10107 -3.17157 9.33512
1 2.54381 -2.95885 10.0744
1 2.10459 -2.67824 -9.84063
1 1.69066 -2.29749 -9.0892
1 1.44265 -3.21763 -9.23447
1 -4.35323 3.29326 8.30531
1 -3.39738 3.3995 8.19377
1 -3.89886 4.11522 7.79906
1 -3.89437 4.01792 6.85392
1 -3.61149 4.70587 6.20375
1 -4.56693 4.90299 6.70879
1 -4.96933 4.24097 7.1991
1 -6.00162 4.3183 7.00413
1 -6.23673 3.65751 7.70229
1 -6.66525 2.87712 8.04502
1 -5.93159 -10.139 -4.88495
1 -5.16191 -9.71798 -4.3665
1 -5.1806 -10.2966 -3.59703
1 -5.25591 -9.73998 -2.76472
1 -5.24826 -9.1224 -3.46614
1 -4.34053 -9.49038 -3.3659
1 -4.20118 10.3284 -3.3219
1 -4.50527 9.71843 -3.97716
1 -3.63114 9.28422 -4.02854
1 -4.30981 8.77166 -3.53493
1 4.69583 6.31841 -4.36799
1 3.76657 6.53073 -4.52415
1 2.94881 6.24549 -4.8252
1 2.82998 7.01844 -5.30303
1 3.15068 6.27665 -5.81881
1 3.41188 5.48814 -5.28818
1 2.56289 5.25768 -5.55155
1 2.29876 5.43567 -4.6544
1 3.13105 5.35995 -4.09199
1 2.34499 5.48317 -3.55342
1 3.31608 9.70212 8.0379
1 3.18097 9.27787 7.16757
1 2.36469 8.78428 7.31636
1 2.25078 8.40334 8.12619
1 3.16535 8.44627 8.25834
1 4.00921 8.84787 8.576
1 4.15555 9.42028 9.33582
1 3.30625 9.63269 9.10968
1 3.20939 10.1546 9.87701
1 2.52708 9.92239 -10.3151
1 -8.63634 -2.81111 -0.694072
1 -9.27154 -3.24616 -1.26023
1 -9.41823 -2.38403 -1.56715
1 -9.33143 -1.96378 -2.4189
1 -9.51375 -2.88952 -2.45858
1 -8.63982 -2.66283 -2.79634
1 -8.03035 -2.51508 -3.56405
1 -8.27775 -1.65273 -3.29892
1 -7.91162 -2.10189 -2.4726
1 -8.2814 -2.47669 -1.6653
1 -2.2004 9.31677 7.21398
1 -2.73061 8.58415 7.56619
1 -2.73461 8.83856 8.49264
1 -3.66595 8.92143 8.17237
1 -3.83908 9.66126 7.60197
1 -3.24342 9.31006 6.92258
1 -3.08981 10.3027 6.99911
1 -2.99619 -9.47415 6.99512
1 -3.87322 -9.68228 7.27622
1 -4.29419 -9.27858 7.99124
1 3.93653 -2.75592 -7.78122
1 4.61847 -2.3402 -8.23854
1 5.1534 -2.73515 -7.47363
1 5.38544 -3.54481 -6.98089
1 5.64704 -4.30292 -6.42704
1 5.58285 -4.65072 -7.29605
1 4.63078 -4.66522 -7.08968
1 4.52148 -4.00353 -6.40907
1 4.32404 -3.07169 -6.24034
1 4.05479 -2.22496 -5.90569
1 5.88171 -5.57464 8.8376
1 6.03983 -6.5248 8.92639
1 6.76796 -7.05522 8.91684
1 6.63323 -7.18534 7.97829
1 7.203 -6.47125 8.13164
1 7.71037 -7.2626 7.84496
1 7.22927 -7.98205 8.18675
1 7.05 -8.3034 9.06798
1 7.04364 -8.65093 9.96983
1 6.45252 -9.20429 -10.2219
1 5.2303 -5.58943 -2.78179
1 5.4917 -4.63196 -3.04593
1 4.91359 -4.27413 -2.36455
1 5.68342 -4.65331 -1.995
1 5.69923 -4.81139 -1.00003
1 6.41257 -5.16102 -0.457198
1 6.03549 -4.45355 0.143609
1 5.96429 -4.68902 1.02739
1 5.99565 -3.74478 1.20433
1 5.04711 -3.97365 1.1316
1 -5.52221 6.20302 -9.65541
1 -4.9462 6.68953 -10.211
1 -4.01505 6.32741 -10.2201
1 -3.15264 6.39406 -9.82392