8000
Atoms. Timestep: 0
1 2.93437 4.13841 7.41314
1 3.21106 5.03764 7.63413
1 2.53169 5.11462 6.96296
1 2.33917 5.89657 6.40962
1 1.53729 6.30706 6.61774
1 0.944782 5.52613 6.60844
1 1.05956 5.3253 5.65067
1 1.61423 4.73448 6.21877
1 1.4753 3.94012 6.6738
1 1.75664 3.00455 6.60129
1 6.26373 4.88614 2.29848
1 6.90687 5.56186 2.67577
1 6.14882 5.2314 3.20448
1 5.9944 6.21488 3.22851
1 6.76272 6.08257 3.83562
1 6.05469 6.5428 4.33705
1 6.72569 6.85189 4.94493
1 6.43881 7.54512 4.25879
1 7.12715 7.74759 3.6058
1 7.34349 6.92277 4.00147
1 2.40043 -2.82438 -8.70586
1 1.47235 -2.63048 -8.39226
1 1.99932 -3.26989 -7.91406
1 2.83991 -3.23466 -7.42536
1 2.73368 -4.01598 -6.97575
1 1.79187 -3.75889 -6.92767
1 0.873046 -3.79999 -7.00845
1 0.834502 -3.22865 -6.25506
1 0.052766 -3.80286 -6.37614
1 -0.504547 -4.36135 -5.92676
1 -9.44847 2.89494 -1.90606
1 -9.34299 1.96304 -1.92468
1 -8.6788 1.31871 -1.83516
1 -7.91817 1.03278 -1.30839
1 -8.00265 0.104162 -1.18605
1 -8.78222 0.249042 -1.59369
1 -9.07468 -0.335729 -0.923877
1 -8.93335 -0.968134 -1.58724
1 -8.43978 -0.489054 -2.27946
1 -8.31367 -1.41849 -2.42874
1 4.86565 -9.70337 -4.63228
1 4.16578 -10.0641 -5.18609
1 3.68318 10.0829 -4.87468
1 4.02167 10.0692 -5.78654
1 3.05083 9.78083 -5.79635
1 2.1185 9.58091 -5.6447
1 2.58284 9.89428 -4.8466
1 1.68182 10.0327 -4.63907
1 0.964856 9.98191 -4.02901
1 1.44916 -10.1312 -3.98074
1 2.15954 0.0439743 8.23245
1 2.94651 -0.20293 7.65136
1 2.30955 0.34011 7.30738
1 2.97493 0.999173 7.54607
1 3.09238 1.89582 7.88967
1 2.19496 1.99733 8.25673
1 1.97045 1.25873 7.64918
1 1.3249 0.469582 7.52627
1 1.34038 0.809604 8.47645
1 0.621761 1.34233 8.05158
1 3.62067 6.92115 0.0933293
1 3.80346 7.76299 0.565675
1 3.37452 8.56358 0.577614
1 2.6228 8.00618 0.980961
1 2.81059 7.18581 0.587738
1 3.03061 7.71708 -0.224317
1 2.51757 8.51239 -0.255147
1 3.19171 9.20903 -0.334165
1 2.65524 9.30544 0.444569
1 2.37393 9.67494 1.28218
1 -7.84789 -1.79487 1.11584
1 -7.30184 -1.1503 1.63275
1 -6.79441 -0.395843 1.70009
1 -6.82702 -0.886379 2.54393
1 -7.5048 -0.966261 3.25167
1 -7.14998 -1.23483 4.08527
1 -8.03414 -1.46849 4.02424
1 -8.16251 -0.779625 4.60783
1 -7.49591 -1.20814 5.11911
1 -7.92987 -1.0764 5.97698
1 -0.29619 -1.27633 8.5816
1 0.290634 -2.0563 8.57264
1 1.06583 -2.53737 9.02658
1 1.31362 -1.62617 9.3548
1 0.777295 -1.70163 10.2098
1 1.01046 -2.59047 10.0787
1 1.65314 -2.14838 -10.4071
1 1.6822 -1.90474 -9.51261
1 0.942712 -2.45103 -9.74969
1 0.595605 -2.93268 -8.96112
1 7.19644 -5.23545 -6.27092
1 8.00274 -4.78108 -6.2391
1 8.4784 -4.54011 -5.47302
1 8.76619 -5.37467 -5.08391
1 8.50895 -5.63555 -6.02949
1 9.02736 -6.36489 -5.73514
1 9.87445 -6.35248 -5.29532
1 9.83399 -5.45562 -4.89037
1 9.68644 -4.52208 -5.06311
1 9.3799 -4.77532 -4.22873
1 9.06417 6.19124 6.28592
1 9.42103 6.99742 5.90087
1 8.82369 7.08117 5.19752
1 8.36595 7.88589 5.37936
1 9.00482 7.95236 4.66929
1 8.12725 8.16092 4.2868
1 8.44052 7.29457 4.21594
1 9.0376 7.23036 3.44928
1 9.08488 8.1876 3.35252
1 9.31189 8.90565 2.82816
1 5.27361 9.81353 -3.54897
1 6.06131 10.3477 -3.36057
1 5.61293 -10.38 -4.2077
1 6.48887 -9.9266 -4.13081
1 6.91651 -9.84344 -3.29176
1 6.26518 -9.99155 -2.60041
1 5.40974 -10.3335 -2.34733
1 5.20458 -9.38483 -2.44621
1 5.78504 -9.42049 -1.69639
1 6.50287 -10.104 -1.60427
1 -5.81241 7.69779 6.70491
1 -5.97576 7.2341 5.86335
1 -6.22168 8.19102 5.91874
1 -5.40275 7.95415 5.52546
1 -5.23222 8.14846 4.53072
1 -5.3906 7.33758 4.01953
1 -5.88086 6.50263 4.02327
1 -6.57976 7.01387 4.44145
1 -6.99444 6.74203 3.65269
1 -6.91772 6.57514 2.70102
1 2.01786 4.74001 -3.29465
1 1.57576 5.48536 -3.52605
1 0.966854 4.85885 -3.8182
1 0.268131 4.5901 -3.22362
1 -0.245585 5.1129 -2.55949
1 0.154738 5.69861 -1.87456
1 0.717712 4.86859 -1.97826
1 1.1388 4.56777 -2.78106
1 1.69744 5.24303 -2.47186
1 2.39926 5.96182 -2.36804
1 -1.47772 -8.32621 -3.50945
1 -2.13669 -9.04145 -3.55662
1 -1.98892 -8.50968 -4.38051
1 -2.1587 -7.76834 -5.0011
1 -1.67286 -7.64714 -5.82723
1 -1.71429 -6.83229 -5.2405
1 -1.81971 -6.17956 -4.54392
1 -2.80211 -6.14491 -4.91234
1 -2.73547 -5.71212 -4.0518
1 -2.72822 -4.72919 -4.29256
1 -1.5224 -8.26796 8.71632
1 -2.33851 -7.74258 8.51768
1 -2.913 -7.06452 8.85508
1 -3.53936 -7.70797 8.35034
1 -4.07582 -8.46319 8.12483
1 -4.63313 -7.85616 8.58682
1 -4.03207 -8.09607 9.31172
1 -4.02309 -7.15463 9.41332
1 -3.90439 -6.39063 9.96545
1 -3.96118 -5.47265 9.76132
1 -4.06985 9.40735 -8.34917
1 -3.35903 9.18045 -8.9485
1 -3.51269 9.5594 -9.8016
1 -4.18615 9.93803 -10.4068
1 -3.41926 9.54924 9.96686
1 -2.70103 9.41414 9.35397
1 -2.96035 9.09518 8.5302
1 -2.92174 8.2189 8.00812
1 -2.19316 8.38633 8.63648
1 -1.48773 8.32753 7.96999
1 3.16709 5.05811 -5.36478
1 2.93403 4.542 -6.17204
1 3.86081 4.40174 -6.23313
1 4.5436 4.1962 -6.89921
1 4.24409 3.78743 -7.69828
1 4.4795 3.52 -8.59693
1 4.01188 4.1505 -9.19537
1 3.23301 3.6063 -9.27033
1 3.37871 4.02432 -8.3458
1 2.84551 3.50966 -7.7961
1 3.36348 -5.66396 2.10901
1 3.5474 -4.8391 1.63805
1 2.63079 -4.71661 1.9798
1 1.78571 -4.36612 2.37223
1 0.890937 -4.21023 2.64018
1 0.851774 -4.49836 1.74141
1 0.819105 -5.02106 0.909382
1 0.02964 -5.26754 0.377824
1 -0.585773 -5.22557 1.1359
1 -1.45866 -5.39879 0.925707
1 5.87082 4.05371 10.0438
1 6.24334 3.95239 -10.0271
1 6.85458 3.26474 -10.4405
1 7.72208 2.96992 -10.0917
1 8.68774 3.10241 -9.95871
1 9.29218 2.9057 -9.14135
1 9.77325 3.49983 -9.63917
1 9.56755 3.0073 -10.4258
1 9.74495 2.56789 9.68053
1 9.96743 3.4438 9.32965
1 -9.25192 -8.79818 6.89503
1 -8.82742 -9.64256 6.59944
1 -9.16908 -9.17362 5.86164
1 -9.41699 -10.0532 5.67296
1 -9.27682 10.2163 6.34701
1 -8.74751 9.42432 6.18539
1 -7.83713 9.15489 6.20629
1 -7.37045 9.71546 6.81557
1 -8.19079 10.0157 7.2062
1 -8.11315 10.37 6.34441
1 -4.2038 -6.1289 -9.51866
1 -3.72299 -5.49491 -10.0454
1 -2.96079 -5.30306 10.3191
1 -2.06189 -5.52201 9.82938
1 -1.90984 -4.89838 9.03141
1 -1.18517 -5.03668 9.62524
1 -1.18208 -5.77051 8.92569
1 -1.52748 -5.74764 8.06099
1 -2.38782 -5.3014 8.14049
1 -3.34999 -5.18677 8.45203
1 7.28689 0.705724 1.06044
1 6.64414 0.648989 1.79329
1 6.53867 0.118003 2.57319
1 7.45702 0.374904 2.46768
1 8.06647 0.645109 1.7099
1 7.57128 -0.141416 1.5213
1 7.89176 -0.846684 0.963967
1 7.09274 -1.10517 1.3089
1 6.76684 -0.486961 0.636139
1 6.13892 -1.18821 0.783604
1 -4.42622 3.31471 -5.3743
1 -4.28181 2.46262 -5.66681
1 -3.34242 2.60482 -5.63568
1 -2.77302 1.88294 -5.40497
1 -2.60868 2.61653 -4.79692
1 -2.08025 3.32265 -4.45278
1 -1.76837 4.16762 -4.71172
1 -1.15239 4.258 -3.9862
1 -0.702164 4.25746 -4.83312
1 -1.04466 3.42854 -4.54729
1 4.8512 -0.252967 2.54836
1 3.99992 -0.708832 2.50145
1 4.41632 -0.961746 3.32087
1 3.96869 -0.961892 4.14183
1 4.63041 -0.83976 4.83008
1 5.3114 -0.379326 5.40291
1 5.37106 0.328606 4.76192
1 5.80919 0.70985 5.52961
1 5.37577 0.241118 6.24465
1 5.52465 -0.544812 6.8163
1 9.7922 -8.7991 5.13229
1 9.29213 -8.00995 5.26286
1 9.19782 -8.10689 6.2552
1 10.0862 -8.41852 6.2651
1 9.6138 -8.89685 6.91476
1 9.45302 -9.37897 6.04959
1 8.8288 -8.84469 5.61844
1 8.45736 -8.36271 4.9043
1 8.50542 -9.24699 4.61712
1 9.39089 -9.38317 4.23152
1 -2.24708 -3.39233 8.65868
1 -2.70004 -4.26541 8.46458
1 -1.90593 -4.20169 7.84751
1 -1.28792 -4.11654 8.54576
1 -0.674314 -4.84653 8.50426
1 0.0629366 -4.15822 8.61113
1 0.565521 -3.54128 8.10963
1 0.911288 -2.68245 7.8276
1 1.14185 -1.7939 8.06704
1 2.09723 -1.48079 7.7725
1 9.29864 5.93267 -7.67503
1 10.1173 6.41541 -7.89711
1 -10.0336 5.99503 -8.17425
1 -9.2 6.06726 -7.72686
1 -8.52166 6.75093 -7.73952
1 -8.86135 7.27385 -6.99375
1 -9.6305 6.80559 -6.83084
1 -9.75416 7.67093 -6.35591
1 -10.4655 7.4967 -7.04015
1 10.3461 7.47829 -7.97639
1 -10.3783 5.62583 -2.63459
1 10.4421 4.69209 -2.6219
1 -10.15 4.50033 -1.77602
1 -10.2783 3.57352 -1.41434
1 -10.0856 2.73427 -1.09538
1 10.4729 1.75771 -1.1198
1 -9.80016 1.16307 -1.45375
1 -10.0191 0.609852 -2.21947
1 -9.97873 0.0562579 -1.46829
1 -10.2331 -0.0850146 -0.526342
1 -9.59698 -8.85763 9.06129
1 -9.39899 -9.59143 9.60007
1 -10.0128 -9.10965 10.2186
1 -10.2041 -10.0041 9.91135
1 -9.48115 -10.0812 -10.4242
1 -9.51722 10.4017 -9.57664
1 -10.0075 -10.2864 -8.7979
1 -9.9505 -10.4651 -7.90196
1 -10.3008 9.6172 -8.19849
1 -10.3023 8.7676 -7.87958
1 -2.92751 -3.32298 7.76065
1 -3.82071 -3.61 7.50787
1 -4.03694 -2.72567 7.19067
1 -4.46601 -2.30167 7.93747
1 -4.68229 -1.72295 7.20596
1 -4.82852 -1.60107 6.25792
1 -5.04354 -1.46521 5.37376
1 -5.47641 -0.771546 5.72534
1 -5.15756 0.0293489 6.20307
1 -5.15652 -0.807213 6.74504
1 9.89023 -2.40639 3.67994
1 9.02518 -2.71592 3.34217
1 9.25489 -1.79769 3.17022
1 8.71436 -1.11378 2.79287
1 8.40209 -1.97143 2.66591
1 8.43698 -2.32501 1.83578
1 9.19661 -2.82948 1.52277
1 8.73452 -2.76559 0.629891
1 9.48818 -3.30969 0.385333
1 9.1937 -4.10991 -0.0588957
1 -1.65821 -6.52293 9.69147
1 -2.12912 -7.40542 9.53182
1 -2.17172 -8.31187 9.49905
1 -2.31932 -9.18134 9.9686
1 -1.71122 -9.86708 9.63185
1 -1.1734 -9.43909 10.3859
1 -0.653372 -9.89055 9.80381
1 -0.451499 -10.2628 8.91473
1 0.0840799 -9.88251 8.20169
1 0.23314 -9.71462 7.2993
1 0.365951 4.04341 0.0229245
1 1.30833 3.90537 -0.160079
1 1.00835 4.83912 0.051508
1 0.53167 4.81566 -0.812323
1 1.11874 4.2187 -1.2073
1 1.38801 3.28191 -1.02781
1 0.678329 2.89089 -0.476801
1 0.793572 2.11873 -1.04405
1 0.895519 2.46819 -1.96928
1 0.132283 2.58304 -2.55066
1 3.6859 -0.0319164 -0.374347
1 4.62033 -0.0427214 -0.57156
1 5.52145 -0.250951 -0.771079
1 5.39354 -0.547919 0.131225
1 4.52218 -0.983374 -0.136671
1 5.21837 -1.72824 -0.00186346
1 5.58514 -2.62438 0.10947
1 6.49244 -2.39626 -0.270691
1 5.78072 -2.17872 -0.897672
1 5.4676 -1.28276 -1.10684
1 7.54791 1.30208 9.35527
1 7.70013 1.4152 8.4468
1 7.55379 0.475714 8.63839
1 6.62555 0.264371 8.50962
1 5.80717 0.66752 8.52831
1 6.37846 0.955316 9.31534
1 6.21846 1.13694 10.2533
1 7.02311 0.641374 10.0864
1 7.016 1.14134 -9.97345
1 7.77362 1.52202 -10.4459
1 3.91045 -3.99978 9.67648
1 4.1984 -3.09198 9.32304
1 5.19078 -3.20072 9.1191
1 5.46728 -2.83129 8.21287
1 5.60344 -3.72372 7.82871
1 6.15374 -4.39214 8.17068
1 6.85255 -4.26403 8.79746
1 7.11186 -3.60348 8.07614
1 7.52142 -3.47243 7.18663
1 6.60808 -3.7788 7.19391
1 -6.91522 -8.6567 0.385491
1 -7.0627 -9.577 0.805046
1 -7.84787 -9.82739 1.34869
1 -7.31233 10.4159 1.60422
1 -6.4778 -10.1898 1.84186
1 -6.05168 -10.069 2.71896
1 -6.0268 9.94196 2.79107
1 -6.66484 9.6475 2.12441
1 -7.11394 9.38044 2.98611
1 -7.24231 8.66638 2.33061
1 3.45403 5.92839 -2.06234
1 4.25111 6.44649 -1.94994
1 4.55838 5.95324 -2.77917
1 4.65632 6.25282 -3.67373
1 3.8523 6.7109 -3.70796
1 3.22191 6.39798 -4.43077
1 3.29329 6.93623 -5.19759
1 3.46791 6.67574 -6.05052
1 4.06599 6.29535 -6.69339
1 3.66853 5.54745 -6.23676
1 -7.10101 5.39957 -0.234308
1 -6.12407 5.11251 -0.00504729
1 -6.82549 4.61711 0.332686
1 -6.50136 3.73225 0.272615
1 -5.91794 3.05079 0.660127
1 -5.19767 2.99158 1.27846
1 -5.26815 2.03507 1.472
1 -4.53957 2.31583 0.881264
1 -4.05565 1.69306 1.32815
1 -3.42339 1.73882 2.10643
1 -5.92341 -8.24743 -0.369137
1 -6.67903 -7.87547 -0.789101
1 -7.06815 -7.01492 -0.480148
1 -7.46735 -7.71454 -0.0166205
1 -7.26596 -6.96727 0.636536
1 -6.97393 -7.4063 1.42671
1 -6.47008 -6.90407 2.06706
1 -6.96198 -6.29526 1.48401
1 -7.93441 -6.34721 1.40298
1 -8.51733 -6.41009 2.2239
1 -0.401778 1.54518 5.55016
1 0.430057 1.85818 5.21703
1 1.37419 1.51371 5.04046
1 1.02663 0.987336 4.28969
1 1.29361 0.761347 3.37768
1 2.1657 1.01808 3.12228
1 2.87162 1.54654 2.7092
1 2.33507 1.22869 2.07342
1 1.51047 1.50062 2.39148
1 0.72201 2.06169 2.35372
1 -4.34804 -10.3089 -1.8173
1 -5.19743 10.2922 -2.11579
1 -5.0506 9.65515 -2.79591
1 -4.7254 10.128 -3.58143
1 -5.61174 -10.4666 -3.36822
1 -5.5094 9.57236 -3.77275
1 -4.73053 9.42179 -4.37154
1 -5.29668 9.74937 -5.10185
1 -4.59997 10.454 -5.02941
1 -4.33538 -10.0739 -4.20431
1 -9.64033 -4.94613 6.6707
1 -9.11748 -4.57658 7.446
1 -9.44453 -5.42671 7.72148
1 -9.59896 -5.7814 8.62886
1 -9.60186 -6.49064 7.95527
1 -10.3633 -5.83347 7.91107
1 10.4229 -5.66832 8.90515
1 9.63941 -5.46811 8.4287
1 9.41993 -5.37203 7.50551
1 9.2572 -4.72972 6.78489
1 -4.96356 7.3419 2.49263
1 -5.42881 7.88792 3.10399
1 -6.09814 7.1852 3.21148
1 -6.32142 7.57199 2.40588
1 -7.30256 7.50363 2.39277
1 -7.8515 7.75131 1.66465
1 -7.01405 7.4081 1.4089
1 -6.93879 7.88591 0.587475
1 -6.50063 8.17591 -0.179338
1 -6.99224 8.99381 0.189942
1 5.04917 -4.12017 9.96362
1 5.4827 -4.38051 -10.1945
1 5.37783 -3.52663 -9.78858
1 6.06028 -3.7469 -9.18854
1 5.55487 -3.00212 -8.7235
1 4.91 -3.53605 -8.15116
1 3.97016 -3.51416 -8.45616
1 3.00154 -3.74747 -8.71237
1 2.68995 -3.49158 -9.66275
1 2.61259 -2.68618 -10.2229
1 -9.31824 0.526376 -7.5716
1 -9.48516 1.49309 -7.71673
1 -9.30418 0.945124 -8.45854
1 -9.4448 0.7724 -9.35017
1 -8.52759 0.747237 -9.58752
1 -8.69201 1.55409 -10.1695
1 -8.78085 2.54039 -10.0959
1 -9.44393 2.52635 10.1482
1 -10.2817 2.92316 10.3915
1 10.2463 3.86359 10.3467
1 -10.2121 2.02288 2.77888
1 10.0571 1.81506 3.46297
1 9.81973 2.01026 4.42994
1 9.51553 1.10071 4.60547
1 8.98296 1.5886 3.9909
1 8.38849 2.2982 3.7577
1 8.15845 1.94664 4.61061
1 7.67688 2.77148 4.31032
1 7.71708 3.53306 4.84962
1 8.60906 3.23339 4.60648
1 5.37733 -4.38589 8.8883
1 6.04451 -4.88175 9.25406
1 5.50174 -4.99935 9.98736
1 5.41793 -5.89722 9.56334
1 5.25218 -5.59691 8.69873
1 5.50942 -6.25098 8.03748
1 6.32808 -5.78853 8.13407
1 6.12903 -5.9561 7.22292
1 6.69164 -5.86161 6.4337
1 7.48633 -5.9016 5.93963
1 -4.79602 -7.84347 -2.09319
1 -3.874 -7.7974 -2.09691
1 -3.02069 -8.01124 -2.39114
1 -2.9011 -8.89093 -1.85468
1 -3.77902 -9.29163 -1.7689
1 -3.59245 -8.57094 -1.19161
1 -4.11116 -8.508 -0.417761
1 -4.17283 -7.64134 -0.0762686
1 -3.39856 -7.29794 -0.48127
1 -3.76385 -6.41101 -0.479173
1 4.42392 0.332166 10.0833
1 4.00941 -0.46428 9.78336
1 3.37383 -1.27982 9.71556
1 3.04335 -2.14397 9.89485
1 3.40114 -2.40867 9.08445
1 2.50653 -2.53235 9.07184
1 1.79884 -2.67083 8.35833
1 1.72041 -3.52482 8.69876
1 1.93371 -3.26594 9.61368
1 1.56971 -3.36585 -10.453
1 4.01907 -0.175267 6.93436
1 3.28661 -0.580121 6.53777
1 2.53832 0.0113556 6.3394
1 2.94999 0.291673 5.46685
1 3.59553 1.06952 5.22359
1 3.0201 1.79466 5.27013
1 3.38504 1.86803 6.11476
1 3.37978 2.81878 5.87854
1 2.41758 3.0315 5.76812
1 2.24449 2.14744 5.92551
1 2.9616 9.06594 -8.96479
1 3.96375 8.82694 -8.94538
1 4.47107 8.57119 -9.70043
1 3.69195 7.95325 -9.49596
1 3.95742 7.43321 -10.3101
1 3.66261 7.83881 9.84859
1 3.31716 7.17725 9.22505
1 4.2067 7.49209 9.06603
1 4.67137 7.23786 9.92041
1 5.33107 7.24069 9.23047
1 2.30404 6.34425 0.44056
1 2.26419 5.80467 -0.39454
1 1.64457 6.08694 -1.02477
1 1.82998 5.28802 -1.38955
1 2.62793 4.97725 -1.79093
1 2.89275 5.1195 -2.72169
1 2.60004 5.65724 -3.47462
1 2.8595 6.50429 -3.26889
1 3.1966 6.84377 -2.43496
1 4.07661 7.27264 -2.55209
1 -6.89286 -7.21686 -8.12941
1 -6.99194 -6.81498 -7.30707
1 -7.11722 -5.89665 -7.01634
1 -6.22681 -6.06295 -7.45978
1 -5.65693 -6.01915 -6.74587
1 -4.83559 -6.24582 -6.22085
1 -5.15256 -7.114 -6.44254
1 -4.40137 -7.13746 -5.8755
1 -4.06224 -7.13112 -4.98476
1 -4.25512 -6.28979 -5.30383
1 -4.38053 7.78506 6.82142
1 -4.05457 7.83666 7.67121
1 -3.55005 7.08698 7.52498
1 -2.63505 6.78158 7.27912
1 -1.71284 6.41745 7.205
1 -2.17268 5.7705 7.77697
1 -2.05876 5.52087 6.8455
1 -2.25954 5.56405 5.95837
1 -3.07235 5.52394 5.57871
1 -4.03735 5.29794 5.51027
1 2.10286 0.46769 -1.50445
1 2.74899 1.11887 -1.43177
1 2.50597 1.92441 -0.938014
1 3.38171 1.93028 -0.532177
1 3.53279 2.48972 -1.30171
1 4.1955 3.18692 -1.64228
1 4.7356 2.90668 -0.969421
1 5.15755 2.91774 -0.0934608
1 4.42453 3.2234 0.378163
1 3.45421 3.22245 0.398821
1 2.92329 7.74783 6.60919
1 2.57302 7.18552 5.90385
1 2.97165 6.75 5.07994
1 3.3967 6.28476 5.79627
1 4.22449 5.85186 5.54701
1 4.44428 6.74585 5.62396
1 4.18831 6.23458 6.4874
1 4.0978 7.14644 6.8857
1 3.66967 7.40027 6.10608
1 4.19474 8.18458 6.41178
1 5.13966 -10.1206 -3.34442
1 5.64056 -9.34383 -3.37285
1 5.52108 -8.40685 -3.46034
1 4.63144 -8.53668 -3.07715
1 4.61401 -9.21613 -3.72618
1 3.87471 -9.2714 -3.05666
1 3.03907 -9.62797 -3.43631
1 2.33309 -9.85811 -2.77581
1 2.44273 -8.98751 -2.46721
1 1.43932 -9.19032 -2.37761
1 -0.428918 9.68302 -4.51032
1 -1.01816 9.66161 -3.78172
1 -1.05213 9.99545 -2.86904
1 -1.90131 10.0188 -3.36108
1 -1.24474 -10.3151 -3.84423
1 -0.666566 -9.67076 -3.53159
1 -1.25301 -9.18076 -2.95458
1 -1.03054 -9.63903 -2.20605
1 -1.92928 -9.46134 -1.90854
1 -2.06285 -10.3127 -2.22505
1 -6.79009 8.5818 8.13948
1 -6.29769 8.39471 7.26464
1 -5.73117 8.02488 7.88531
1 -5.18755 7.29605 7.47587
1 -4.7935 7.65115 8.32427
1 -4.12168 8.29544 8.66777
1 -3.5857 8.75422 9.32929
1 -3.261 7.80827 9.39502
1 -2.60858 8.43019 9.67547
1 -2.11474 7.62055 9.84591
1 2.76473 -4.9423 -6.62797
1 3.0384 -5.733 -7.05315
1 3.64137 -5.91804 -7.80633
1 4.05566 -6.09498 -6.91942
1 4.11331 -5.21295 -7.26351
1 4.50306 -5.27825 -6.41157
1 5.37357 -5.70439 -6.51554
1 6.14586 -5.19323 -6.04274
1 5.31397 -5.27837 -5.56327
1 4.51421 -4.93857 -5.1289
1 -1.76 8.47006 -10.329
1 -1.03309 7.78662 10.4538
1 -0.644732 8.25825 -9.79575
1 -0.105853 7.572 -10.2716
1 -0.764353 7.03303 -9.86316
1 -0.127607 6.3215 -9.5972
1 -0.730332 6.54815 -8.88644
1 -0.160229 6.80728 -8.17467
1 -0.968994 6.69032 -7.6463
1 -1.33886 6.87762 -6.81251
1 1.10205 -5.89301 -8.76554
1 1.42541 -6.65506 -8.28347
1 1.85656 -6.6501 -9.13337
1 1.37298 -7.55405 -8.95274
1 1.67073 -8.36829 -8.43999
1 1.39121 -9.21363 -8.07599
1 0.922893 -8.95529 -7.2846
1 1.90597 -8.8146 -6.92045
1 1.65913 -9.80535 -6.9681
1 0.902397 -10.2241 -7.38498
1 -8.89318 -10.3421 -2.88501
1 -9.79202 -10.3062 -3.17124
1 -9.95192 -9.55986 -2.59998
1 -9.32224 -8.88501 -2.27753
1 -8.64188 -9.4578 -1.80766
1 -8.76714 -8.68265 -1.22921
1 -9.67613 -8.485 -1.14364
1 -9.59283 -9.43988 -1.17079
1 -9.02632 -10.0333 -0.628851
1 -8.3484 -10.2985 -1.2794
1 0.186216 -0.477684 -10.3072
1 0.121066 0.479842 -10.0539
1 0.107226 0.42676 -9.12475
1 -0.286749 -0.46444 -9.25062
1 -1.02992 -1.09364 -9.24835
1 -0.584282 -1.16484 -10.0581
1 0.27024 -1.58937 -9.73531
1 -0.305843 -2.14886 -9.21525
1 -0.780054 -2.20757 -8.38709
1 -1.42154 -2.1936 -9.05376
1 3.63508 4.96357 -7.16211
1 2.94724 5.0794 -7.75466
1 3.30873 5.36216 -8.55791
1 4.04988 4.85403 -8.162
1 4.02398 5.78038 -7.87503
1 3.23213 6.04449 -7.34919
1 2.69078 5.41097 -6.72158
1 2.03496 5.87071 -6.17123
1 2.65508 6.05391 -5.4152
1 2.23837 6.23989 -4.54433
1 10.423 -6.97 -2.13931
1 10.1553 -6.43184 -1.36908
1 9.33817 -6.99304 -1.52238
1 8.54736 -7.05634 -2.12976
1 8.91351 -6.22167 -2.34228
1 9.88522 -6.20892 -2.62049
1 9.9707 -5.28874 -2.88371
1 -10.1109 -4.78714 -2.64438
1 10.3102 -4.75764 -1.87892
1 -10.2377 -5.50251 -1.4939
1 5.56456 -3.13121 -0.756657
1 5.0232 -3.87646 -0.55473
1 5.77343 -4.5444 -0.720225
1 6.53048 -4.80305 -0.219355
1 7.20951 -4.14537 -0.3323
1 6.62232 -4.00691 -1.01267
1 6.46094 -3.5295 -0.23673
1 5.66727 -3.59193 0.209253
1 5.1057 -4.3104 0.625519
1 4.5183 -4.84731 1.21653
1 6.25636 -4.49729 -1.95641
1 6.30783 -3.57711 -1.90859
1 5.43903 -3.77531 -1.51656
1 5.2261 -4.6746 -1.60393
1 5.68135 -5.45906 -1.25779
1 6.32167 -6.0139 -0.840641
1 5.89936 -6.84877 -0.62183
1 5.65831 -7.80693 -0.335683
1 5.24676 -7.1124 0.137897
1 5.43734 -7.15334 1.03203
1 -0.867373 -5.52741 -4.04257
1 -1.63807 -5.03257 -4.2581
1 -1.74558 -4.10984 -4.53651
1 -2.16329 -4.65251 -5.19911
1 -2.41078 -4.14097 -5.87531
1 -1.92817 -3.54151 -5.3582
1 -1.42635 -4.1656 -5.90713
1 -1.21805 -5.07452 -6.18046
1 -1.58312 -5.57486 -5.40797
1 -1.02956 -4.86819 -5.22559
1 5.85622 4.49961 6.47974
1 4.92864 4.25108 6.16891
1 4.6772 4.45637 5.23623
1 5.66766 4.66731 5.3944
1 6.25205 5.01496 4.70377
1 5.49932 4.79949 4.17682
1 5.35758 5.7377 4.31988
1 4.95313 5.53472 3.45326
1 5.01183 5.08123 2.53876
1 5.56972 5.84202 2.41124
1 0.851657 8.37623 6.18849
1 0.480167 8.31541 5.26762
1 -0.288328 8.50775 5.9344
1 -0.550679 7.77727 6.48147
1 0.306682 7.40932 6.60187
1 0.515509 6.49881 6.29299
1 0.134833 5.7408 5.85612
1 -0.58379 5.74315 6.55826
1 -0.622417 6.70056 6.79872
1 -0.494418 6.70094 5.84739
1 7.96972 8.8535 -5.07526
1 7.32328 8.71327 -5.81822
1 7.97281 8.04657 -5.90293
1 7.71266 7.14038 -5.62828
1 8.63162 7.16716 -5.68734
1 9.59162 7.3002 -5.85744
1 9.18204 8.15684 -5.85982
1 9.11569 8.03391 -4.92213
1 9.61896 8.3442 -4.19739
1 9.92425 8.25532 -3.28267
1 0.918047 0.146857 5.31135
1 1.79888 0.299663 5.51903
1 2.30678 1.12372 5.77747
1 2.3995 1.28062 6.69136
1 3.22086 0.743792 6.67661
1 3.89555 0.587137 6.05922
1 4.54742 0.35796 5.38982
1 4.40571 -0.356791 6.01011
1 4.52473 -1.29461 5.80661
1 3.63842 -0.837277 5.61284
1 1.05236 -2.842 -7.48483
1 1.87472 -2.6844 -6.94
1 2.13492 -3.06778 -6.08742
1 2.06528 -2.72251 -5.24749
1 2.75163 -3.27579 -4.89912
1 2.61045 -3.91367 -5.61828
1 3.44105 -4.53946 -5.5554
1 3.29147 -5.07317 -4.73809
1 4.11708 -5.17495 -4.23169
1 4.86759 -5.68154 -3.73709
1 -9.34731 -2.74819 -2.84783
1 -9.87758 -2.71192 -3.67541
1 10.3429 -2.02212 -3.76015
1 9.69665 -1.87897 -4.46085
1 9.75823 -1.16197 -3.86491
1 10.0364 -0.253012 -3.73055
1 -10.0457 -0.385016 -3.33457
1 -10.4609 -1.24493 -3.10795
1 9.68918 -1.75356 -2.78879
1 9.07364 -1.0312 -2.58672
1 -1.25214 -5.83508 1.8513
1 -1.64782 -5.71024 2.70592
1 -2.07918 -5.97304 3.49277
1 -1.59779 -6.78579 3.04481
1 -1.20909 -7.04613 2.18005
1 -0.688276 -6.24728 2.52769
1 -0.50871 -6.912 3.20312
1 0.260236 -6.39838 3.36823
1 0.462906 -7.20429 2.90065
1 1.29751 -7.65788 2.57054
1 9.94683 -5.33367 1.52878
1 9.48719 -6.01297 1.9195
1 9.46108 -6.18354 0.988379
1 9.75016 -7.02773 0.984857
1 10.4261 -6.5096 1.35066
1 -10.2474 -6.70474 0.412517
1 -10.2194 -7.59774 0.0922338
1 -9.84274 -7.15504 -0.667042
1 -8.91615 -6.85667 -0.986381
1 -8.62424 -7.72091 -0.726438
1 0.182002 6.03987 7.13403
1 0.201746 6.9299 7.54087
1 -0.217013 6.83405 8.36615
1 -0.926711 6.81821 7.74143
1 -0.591677 7.76805 7.72143
1 -0.223426 8.42641 7.16325
1 0.715752 8.41754 7.2967
1 0.673896 9.31656 7.02842
1 0.39563 10.1969 6.82397
1 0.114348 9.97331 7.71651
1 2.27845 6.78604 -6.70697
1 2.19427 7.05584 -5.81903
1 1.4392 7.615 -6.10524
1 0.927753 7.0497 -5.55197
1 0.877647 6.71131 -4.58631
1 0.689822 5.71369 -4.45023
1 0.814067 6.16391 -3.62307
1 0.709602 5.54991 -2.87336
1 1.13567 6.05746 -2.10804
1 1.6106 6.5188 -2.85406
1 -6.69448 -5.81358 2.91255
1 -7.48022 -5.77431 2.28557
1 -7.97042 -5.30369 1.50952
1 -7.23948 -4.88692 0.928921
1 -7.54969 -5.62517 0.362018
1 -6.85351 -6.06323 -0.0623193
1 -6.33258 -6.68099 0.46736
1 -5.39964 -6.81456 0.660507
1 -4.92053 -6.40266 -0.0224659
1 -5.10209 -7.34264 -0.501768
1 -8.01012 -1.69936 8.99199
1 -8.83315 -2.019 9.36252
1 -8.88699 -1.3394 10.2004
1 -9.24578 -0.470392 9.94879
1 -8.70973 0.322848 9.98932
1 -9.22451 0.191964 -10.1187
1 -10.1504 0.00109017 -10.2679
1 -10.2932 -0.486483 -9.41838
1 -10.3076 0.177871 -8.65249
1 -10.438 0.848907 -9.31422
1 -9.63184 7.13755 -7.91486
1 -9.78101 7.833 -8.55698
1 -9.87418 8.78572 -8.88167
1 -8.9825 8.77187 -9.16544
1 -8.63491 8.6881 -8.24082
1 -9.20197 8.14179 -7.70549
1 -9.82156 8.55759 -6.97372
1 -9.03897 8.50409 -6.47661
1 -9.21397 9.44812 -6.22265
1 -8.33985 10.095 -6.37768
1 8.67643 6.26526 1.69111
1 9.64633 6.08849 1.6916
1 10.1751 5.28089 1.64345
1 -10.0415 5.89488 1.71808
1 -9.66951 5.82479 2.55749
1 -8.81408 6.19647 2.55956
1 -8.45072 5.69417 1.79321
1 -8.35617 5.36653 0.934221
1 -7.42156 5.6017 0.959124
1 -7.60869 6.19261 0.1082
1 9.7849 -9.89388 7.29577
1 9.2801 -9.26698 7.80531
1 10.1497 -9.12592 8.12732
1 10.3085 -9.32182 9.09177
1 9.88136 -8.89506 9.80175
1 9.78356 -9.55447 10.4493
1 -10.3825 -9.59236 -9.91688
1 10.3852 -9.11908 -9.07896
1 9.96526 -8.98672 -8.27893
1 10.2529 -8.43134 -7.61273
1 -10.0479 6.92996 5.58701
1 -9.73256 6.56092 6.43862
1 -9.10824 5.81777 6.64706
1 -9.66337 5.68427 7.42225
1 -9.3705 6.20177 8.20843
1 -9.56997 6.78628 7.54534
1 -8.66904 6.63343 7.40447
1 -8.74424 7.26207 8.10739
1 -8.16593 7.94975 7.73835
1 -8.20723 8.49008 6.89307
1 -8.8236 -8.77912 -10.1614
1 -9.16924 -8.76445 -9.26896
1 -9.66128 -9.14621 -8.59709
1 -9.90644 -8.30158 -8.32174
1 -9.48353 -7.59358 -7.75584
1 -8.62567 -7.58446 -7.33151
1 -8.20643 -6.6779 -7.11047
1 -8.86113 -6.54359 -7.77959
1 -8.54833 -7.14876 -8.49897
1 -9.44918 -6.8006 -8.6352
1 -8.13337 -3.68639 3.16614
1 -8.96285 -4.02087 3.53567
1 -9.14028 -4.25764 2.64576
1 -10.0116 -4.67047 2.69541
1 -9.93233 -5.45337 3.24766
1 -10.4652 -5.8749 2.55131
1 -9.93762 -5.57225 1.84214
1 -9.33136 -4.81537 1.73628
1 -9.47669 -3.91268 1.62224
1 -9.19844 -3.64894 0.707182
1 -5.00432 -0.0222504 2.74447
1 -4.86219 -0.998246 2.65892
1 -5.0965 -1.71951 2.05956
1 -4.26846 -2.21585 2.27098
1 -4.6867 -2.40571 1.40087
1 -3.92153 -2.97699 1.50178
1 -3.9703 -3.86096 1.83671
1 -3.71987 -3.30355 2.56011
1 -3.86393 -4.0284 3.21566
1 -3.14858 -4.19662 2.67011
1 -9.87173 -3.63134 3.03599
1 10.239 -4.08607 2.98161
1 10.0043 -3.1575 2.96443
1 10.1828 -3.11686 2.00319
1 9.85439 -3.73236 1.40774
1 10.3009 -4.33828 2.00104
1 9.36082 -4.48324 1.88005
1 9.53017 -5.08674 2.65675
1 8.9941 -4.32281 2.88235
1 8.34166 -3.66471 2.65828
1 -4.79394 -5.21154 -10.3556
1 -4.50538 -4.46421 10.0715
1 -4.87461 -3.71209 9.6002
1 -4.56822 -3.45065 8.75391
1 -4.75428 -3.33699 7.83616
1 -5.3159 -2.73486 7.31131
1 -5.77778 -2.29565 6.64907
1 -6.62496 -1.99208 6.86515
1 -6.92596 -1.10673 7.17956
1 -6.4195 -1.03139 6.41135
1 -4.54843 3.15206 10.444
1 -4.81133 2.862 -9.60413
1 -4.5029 2.84339 -8.68858
1 -3.71913 3.28213 -9.0267
1 -2.81382 3.15177 -8.91787
1 -2.67233 3.89443 -9.47176
1 -3.19875 3.22707 -9.87597
1 -3.04632 2.35578 -10.2947
1 -2.53374 2.25136 -9.46405
1 -2.23543 2.46293 -8.57384
1 4.6568 -5.70054 6.23849
1 5.57709 -5.38689 6.19535
1 6.20494 -4.69554 6.14817
1 6.20898 -4.84703 7.11677
1 6.85512 -5.01353 7.8472
1 7.3572 -4.50213 7.22643
1 7.25188 -4.92769 6.35124
1 6.92539 -3.98616 6.2893
1 7.90799 -3.98715 6.29736
1 7.47606 -4.09398 5.4883
1 2.44776 4.17526 5.14007
1 1.87477 3.55106 4.66467
1 1.61284 3.73486 5.54855
1 0.759261 3.26927 5.58573
1 1.128 2.48305 5.94365
1 1.54658 2.67601 5.04776
1 0.581199 2.63642 4.76404
1 -0.0213081 2.49179 3.99411
1 -0.151358 2.02686 3.22365
1 0.094339 1.06846 3.52425
1 1.63655 0.114058 2.55328
1 0.68816 0.115889 2.85684
1 0.521515 0.0806326 3.83982
1 0.372991 -0.795873 3.71244
1 0.804105 -1.52076 3.19547
1 0.665155 -2.17341 2.55513
1 1.63953 -2.27258 2.67808
1 2.1774 -2.37257 3.49783
1 1.24713 -2.24407 3.77132
1 1.3896 -3.16824 3.56253
1 4.27834 5.56705 4.49088
1 3.83953 6.38803 4.68616
1 3.16478 5.70874 4.63992
1 2.32444 5.49729 5.1687
1 2.27202 5.17314 4.29383
1 2.20568 4.45815 3.71339
1 2.9228 4.25627 3.04942
1 3.43773 3.42563 3.13921
1 2.48314 3.21213 3.18762
1 3.03035 2.52405 2.97286
1 8.67938 -10.001 -8.17962
1 8.86366 -9.10443 -8.02004
1 8.96563 -8.62584 -8.8951
1 9.25674 -9.57614 -8.97442
1 9.47161 10.4309 -8.89128
1 10.0566 -10.0915 -8.2288
1 -10.2663 -9.52751 -7.77732
1 10.2655 -10.2211 -7.24275
1 10.096 9.87915 -6.86734
1 -9.87743 9.76313 -7.11969
1 8.267 -4.46686 2.07136
1 7.4116 -4.1313 2.33975
1 7.42533 -3.15784 2.22471
1 6.85131 -3.43281 2.97197
1 6.62441 -3.84183 3.82169
1 7.39358 -3.41723 4.18224
1 7.40792 -2.44235 4.46719
1 7.73776 -3.12759 5.08121
1 7.05095 -2.53915 5.49305
1 6.80649 -1.70953 5.94693
1 7.05684 6.73317 7.2332
1 7.84804 6.82522 6.67217
1 8.16059 5.95375 6.38178
1 7.42856 5.62595 5.79037
1 6.85301 6.2755 6.25294
1 6.4008 5.47417 5.97711
1 6.18317 5.94713 5.17001
1 5.29224 5.63874 5.46321
1 4.90071 5.31329 6.25688
1 5.13774 4.88322 7.14614
1 -7.53284 -1.43725 -7.82242
1 -7.74991 -1.95073 -7.03974
1 -8.38037 -2.66569 -6.9608
1 -8.33177 -3.32623 -6.22399
1 -8.76495 -4.04412 -5.73095
1 -8.41015 -4.93132 -5.84307
1 -7.76177 -5.04016 -6.55044
1 -7.96178 -5.55353 -7.36628
1 -7.81856 -5.12524 -8.21758
1 -8.41793 -4.40739 -8.43574
1 -4.74048 3.9783 2.37862
1 -4.36469 3.92188 1.51472
1 -4.30195 4.73115 1.02928
1 -5.09708 4.78778 0.415832
1 -5.43718 5.30859 1.12105
1 -5.80097 5.51213 1.9682
1 -6.26596 4.75535 2.32699
1 -7.06724 4.44287 1.93494
1 -7.05809 5.38691 2.07073
1 -7.05254 5.36542 3.01951
1 -6.08058 -6.97578 9.82113
1 -5.51481 -6.688 9.13181
1 -5.47465 -6.57032 8.17395
1 -5.19481 -7.36106 7.82037
1 -4.44603 -6.7699 7.93761
1 -4.47154 -6.48663 8.84261
1 -3.62837 -6.25248 8.79676
1 -2.93846 -6.02747 9.54212
1 -2.14649 -6.00218 8.9439
1 -1.84964 -6.82541 8.64906
1 1.3096 -9.63633 4.02202
1 0.904645 -8.841 4.29807
1 1.17275 -8.23682 4.99679
1 0.9053 -9.03232 5.41256
1 1.30242 -9.6676 5.96559
1 0.756243 -10.4339 5.74733
1 0.729663 9.51306 5.72171
1 1.55604 9.22009 6.13186
1 1.65105 10.1696 6.18523
1 1.91265 9.75085 6.98725
1 -4.21087 5.96565 9.41402
1 -3.53948 5.79615 10.1291
1 -3.75945 5.21124 -10.1553
1 -3.95892 4.32229 -10.0057
1 -3.88341 3.94771 10.0472
1 -4.5533 3.89593 9.42154
1 -5.42201 4.04926 9.03351
1 -5.81884 4.9521 8.93239
1 -4.84993 5.03719 9.00236
1 -4.49687 4.99571 9.93554
1 -0.700594 1.32076 -10.1049
1 -0.455815 1.4501 -9.20946
1 0.495018 1.70893 -9.168
1 0.154783 1.95032 -8.33424
1 -0.419461 1.61421 -7.64765
1 -1.12691 1.36373 -8.24899
1 -1.59286 0.619399 -8.61701
1 -1.0592 0.248942 -7.91316
1 -0.409569 -0.449026 -8.20473
1 -0.0129109 -0.857599 -7.43362
1 -3.88955 9.30991 -3.09143
1 -2.93061 9.29097 -3.21507
1 -2.82057 9.53162 -2.27487
1 -2.56393 8.69221 -2.60388
1 -2.09773 8.53739 -3.45458
1 -1.9396 9.27812 -4.03991
1 -1.18146 8.76421 -4.35789
1 -0.337513 8.8494 -3.92678
1 -0.0919838 8.26412 -3.22809
1 -0.238381 7.55604 -2.57576
1 10.3854 -3.44616 -9.12834
1 -9.67672 -3.52031 -9.52878
1 -8.80371 -3.6252 -9.16121
1 -7.91939 -3.3063 -9.3395
1 -8.04142 -3.95014 -10.0045
1 -8.05286 -4.09149 9.94478
1 -8.50508 -3.90749 9.14734
1 -8.25801 -4.44999 8.34664
1 -8.2988 -5.4216 8.59853
1 -8.17829 -5.3008 7.62184
1 -5.77304 7.26727 0.612346
1 -5.20523 6.93352 1.2953
1 -5.00927 7.91211 1.29318
1 -4.7233 7.5398 0.428917
1 -3.96795 7.59745 -0.201212
1 -4.04245 6.64778 -0.0915213
1 -3.30915 6.35463 -0.824969
1 -4.25428 5.99492 -0.840971
1 -4.97176 6.06356 -0.247365
1 -5.16493 6.94275 -0.553717
1 -5.29578 1.24436 4.35453
1 -5.09059 1.87886 3.6019
1 -5.99998 1.96138 3.46271
1 -6.23758 2.82272 2.94656
1 -5.53474 3.03135 3.52479
1 -4.62362 2.88373 3.10614