8000
Atoms. Timestep: 10000000
1 -7.6737 1.96206 7.49824
1 -8.33302 2.62048 7.17792
1 -8.0776 3.0071 8.01677
1 -7.68174 2.26021 8.42231
1 -7.11391 2.95736 8.70993
1 -6.55833 2.37548 8.16338
1 -6.48991 1.5141 8.60668
1 -6.35593 0.809128 9.24563
1 -6.44275 1.67629 9.57363
1 -6.11838 2.53456 9.32886
1 -4.44877 9.38401 7.05335
1 -4.4018 10.3704 7.20143
1 -4.90926 10.423 6.44633
1 -4.83371 -9.94084 6.64028
1 -5.23599 -10.4287 7.39086
1 -5.84006 -10.6075 8.12801
1 -6.40663 -10.5499 7.33455
1 -5.82053 -10.2481 6.58948
1 -5.87171 10.1296 6.68543
1 -5.86195 10.2856 5.75835
1 -0.159502 -9.58494 5.6553
1 -0.622196 -8.83718 5.9598
1 -0.67687 -9.63025 6.5384
1 -1.47308 -10.1057 6.51984
1 -1.19339 -10.513 7.35302
1 -0.99337 -10.2554 8.2352
1 -0.293728 10.4055 8.44869
1 -0.701833 -10.4589 9.22789
1 0.0517476 -9.77412 9.19384
1 0.64329 -9.679 10.0289
1 -6.35757 0.608165 -6.03892
1 -6.68775 0.18708 -6.83404
1 -7.37627 -0.348322 -6.40678
1 -6.41801 -0.643028 -6.25244
1 -6.62419 -1.09873 -7.05463
1 -7.51716 -0.929615 -7.23324
1 -8.00274 -0.129192 -7.48306
1 -7.94177 -0.88357 -8.16112
1 -8.75873 -0.539973 -8.55727
1 -9.38857 -0.329583 -9.21835
1 0.832223 -7.26518 8.43156
1 0.974722 -7.81653 9.2334
1 0.26513 -7.7654 9.90514
1 0.488886 -6.84665 9.66294
1 -0.318179 -7.04741 10.1497
1 -0.61569 -6.59392 -10.3882
1 -1.4394 -6.37825 10.5279
1 -2.20065 -6.04114 10.057
1 -2.37788 -6.16186 9.09284
1 -3.02838 -5.40317 8.94248
1 3.35846 -2.37426 -4.74565
1 3.88175 -1.54295 -5.01712
1 4.74044 -1.54485 -5.4403
1 5.20348 -2.21907 -4.89713
1 4.55617 -2.48998 -4.17179
1 5.30235 -1.98016 -3.82512
1 5.21701 -2.53627 -3.04077
1 4.60234 -3.29012 -3.11026
1 4.38132 -4.22798 -3.11055
1 5.0341 -4.94729 -3.0332
1 4.51707 -5.84708 -2.09978
1 4.66045 -6.37658 -2.87377
1 5.54776 -6.40805 -2.47154
1 6.43371 -6.35079 -2.16509
1 6.54421 -7.24284 -1.73418
1 7.31114 -7.70884 -1.63419
1 7.31921 -6.82481 -1.28836
1 7.50622 -7.04117 -2.30637
1 8.3593 -6.74283 -1.84727
1 9.32919 -6.61349 -2.04185
1 7.62668 4.82845 6.45198
1 8.05355 5.54666 6.87463
1 7.39277 5.80122 6.22198
1 8.25182 6.3374 6.01322
1 8.92177 6.01136 6.76113
1 9.23134 5.72263 5.84173
1 9.52083 6.19574 5.0502
1 9.83295 5.37366 4.7525
1 9.07279 5.7166 4.24275
1 9.05472 6.61853 4.03378
1 -4.73502 3.17262 -9.9592
1 -3.9212 3.0467 -10.4851
1 -3.50519 3.78887 10.4937
1 -2.63572 4.08941 10.1716
1 -2.48112 3.64848 -10.3645
1 -2.31304 2.71395 -10.5662
1 -2.07978 2.25145 -9.76731
1 -2.33172 1.4403 -9.49371
1 -1.68041 1.20333 -10.0929
1 -1.73816 0.973522 10.3103
1 -6.11775 0.862509 3.61061
1 -5.34567 1.40516 3.8393
1 -5.01152 0.449722 3.78711
1 -4.07576 0.606357 3.8569
1 -4.33071 0.820511 2.98017
1 -3.38602 0.982883 3.11583
1 -2.46661 0.790185 3.15104
1 -2.53405 1.66279 3.55299
1 -2.772 1.10648 4.3211
1 -2.27489 0.621662 4.94169
1 5.84929 -2.3734 -6.67673
1 5.87948 -2.59208 -5.70545
1 5.58426 -3.48184 -6.06682
1 4.96949 -3.37161 -5.33324
1 5.03003 -3.52955 -4.403
1 4.62604 -4.36961 -4.14246
1 5.41917 -4.96489 -4.20011
1 5.63751 -4.5209 -5.06406
1 6.00886 -3.60174 -4.92368
1 6.79937 -3.1138 -4.66364
1 -8.63021 5.51064 8.41081
1 -9.06264 6.33201 8.1912
1 -9.97453 6.24873 8.40026
1 -9.60175 6.45111 9.32154
1 -9.41311 5.63665 9.79704
1 -9.46072 5.26348 10.6585
1 -9.62185 6.144 -10.4709
1 -9.44101 6.98802 10.5454
1 -8.48995 7.04642 10.2978
1 -7.81077 6.86068 9.64132
1 -2.08715 6.00717 -3.30571
1 -2.77724 6.47101 -2.93695
1 -3.56424 6.92179 -3.21581
1 -3.00585 7.48845 -2.6035
1 -2.25264 7.76675 -3.13805
1 -2.81246 8.55083 -2.92489
1 -3.74536 8.72743 -2.82598
1 -4.51345 9.3145 -2.98966
1 -4.55637 8.74001 -3.74445
1 -5.21935 8.44686 -4.47087
1 -9.39888 -10.1931 -4.30508
1 -9.70555 -9.52537 -3.6141
1 -8.91735 -9.29523 -3.04158
1 -9.62563 -8.75397 -2.71592
1 -10.1688 -9.29343 -2.18129
1 10.3861 -9.80513 -2.20226
1 10.0513 -10.1467 -3.01054
1 9.64418 -10.3065 -3.83445
1 10.027 -9.62253 -4.37366
1 -10.3751 -10.0119 -4.39728
1 6.52707 -9.27904 -2.78632
1 6.89593 -10.1369 -2.76538
1 7.7548 -9.72218 -3.00252
1 7.65564 -10.5706 -3.38651
1 7.36262 -9.84891 -3.92618
1 8.165 -9.78156 -4.42015
1 8.7778 -9.76784 -3.64249
1 9.03002 -10.0559 -2.83211
1 8.65999 -9.21746 -2.84775
1 7.95484 -8.83139 -3.36348
1 10.5047 -7.13032 -5.0287
1 -10.0531 -7.02029 -4.32265
1 -9.91681 -6.95618 -3.41624
1 -9.34506 -7.72875 -3.51912
1 -10.1521 -8.12718 -3.73102
1 -10.5426 -8.88233 -4.11997
1 -10.5413 -8.97972 -3.09572
1 9.95741 -8.56324 -3.10847
1 9.4104 -8.61067 -3.86065
1 8.48325 -8.17727 -3.91841
1 -9.92676 4.19499 7.82444
1 10.5693 4.28095 7.49592
1 10.4543 3.7296 8.22268
1 -10.6153 3.17992 8.97319
1 10.5245 3.98848 9.40986
1 9.81215 3.67877 10.0216
1 9.48134 3.94481 9.17826
1 9.13182 3.31243 8.51558
1 9.84279 2.58507 8.71783
1 9.62236 2.71112 7.85621
1 3.47862 8.52986 -7.02989
1 4.3209 8.94203 -7.31361
1 4.52753 9.46062 -6.61673
1 4.09074 9.96588 -7.31429
1 4.31032 10.0961 -8.25613
1 4.31684 9.67573 -9.07618
1 5.16988 9.43867 -8.92905
1 5.18992 10.4078 -8.9694
1 5.13577 10.4326 -9.90846
1 4.38611 -10.5684 -10.3313
1 8.46847 3.56836 -0.25914
1 9.251 2.93409 -0.435838
1 9.58544 3.57218 0.231192
1 10.4579 3.26095 0.164089
1 -10.1484 2.65873 0.257753
1 -10.2034 3.24727 1.03172
1 -9.60506 3.6543 1.72864
1 -8.77283 3.21258 1.61432
1 -8.48247 3.79475 0.901091
1 -7.70673 3.84503 1.44069
1 7.00683 -6.74433 10.2201
1 6.84874 -6.0258 -10.5035
1 7.70905 -5.91068 10.4172
1 7.54927 -5.15464 9.91512
1 7.35279 -4.30871 10.3377
1 7.96735 -4.06054 9.62729
1 7.93072 -3.14796 9.86642
1 8.79146 -2.80137 9.69552
1 8.86793 -3.75192 9.56258
1 9.57031 -3.80146 10.1861
1 9.95298 -3.37262 4.36379
1 9.64631 -2.9814 3.52292
1 9.45509 -2.34678 4.15141
1 8.61196 -2.79232 3.88423
1 7.83882 -3.30323 4.12564
1 7.51147 -3.66591 3.22938
1 6.94646 -3.27859 2.455
1 6.46348 -4.12803 2.37915
1 6.00121 -3.78604 1.59034
1 6.24754 -3.97837 0.678296
1 1.36127 -7.52747 5.68559
1 1.30917 -6.69794 6.03758
1 2.11379 -7.05372 6.3375
1 2.60875 -7.84534 6.13461
1 3.44558 -7.87376 6.60339
1 3.51004 -7.17547 7.27826
1 2.61185 -6.97372 7.7202
1 3.27292 -7.53398 8.23374
1 3.26456 -7.06986 9.04701
1 3.81616 -6.8954 9.85998
1 10.5168 -9.29749 8.35158
1 10.2817 -8.58431 8.89873
1 9.90631 -7.94263 8.3923
1 9.17853 -8.60116 8.5018
1 9.37751 -8.84616 9.41731
1 9.22776 -7.91529 9.2044
1 8.4131 -7.3983 9.19561
1 8.3433 -7.84055 8.29894
1 7.40101 -7.69461 8.57314
1 7.04528 -8.1203 9.35106
1 -4.81267 -4.89861 6.90777
1 -5.57644 -4.66661 6.48517
1 -4.91749 -4.60429 5.79455
1 -5.26415 -3.95397 5.06382
1 -5.59108 -4.03271 4.09637
1 -5.435 -3.05893 4.09479
1 -6.00987 -3.34597 4.8133
1 -6.57673 -3.32393 5.54165
1 -6.67957 -3.15307 6.4397
1 -7.59534 -3.26872 6.05945
1 9.73999 1.58965 9.20053
1 9.97741 0.989374 9.92765
1 9.18444 0.381018 10.122
1 9.1175 0.596214 -10.2515
1 8.93827 1.5649 -10.3298
1 8.81696 1.43383 10.0611
1 7.92162 1.29878 9.59029
1 7.73515 1.64874 10.482
1 7.29273 2.34061 10.0004
1 6.57901 1.61426 10.0453
1 5.55381 6.89824 7.57598
1 5.14701 7.72311 7.66875
1 4.319 8.31413 7.69169
1 4.69782 8.72406 8.4481
1 3.87158 9.1249 8.07347
1 3.32856 8.80092 7.3993
1 4.07315 9.35028 7.08437
1 3.3388 9.91283 7.54067
1 2.92721 10.5835 8.17932
1 3.81575 10.3134 8.47559
1 8.08999 0.76513 -6.39289
1 7.43173 1.32284 -6.86606
1 6.92796 0.814237 -7.49137
1 7.63461 0.519309 -7.96787
1 8.38765 0.815393 -7.45764
1 9.11949 1.35769 -6.87014
1 9.6825 1.87833 -6.31699
1 10.4206 2.17308 -6.92846
1 -10.313 1.88263 -6.29065
1 -9.69696 1.72691 -5.61119
1 -1.71786 -10.3442 -9.53629
1 -0.882601 10.5973 -9.88421
1 -1.16653 10.6325 10.5707
1 -0.212881 -10.6142 10.4361
1 -0.502287 9.89561 10.1235
1 0.439046 10.0913 10.181
1 0.497906 9.02201 10.2041
1 -0.369977 8.83596 -10.6427
1 -1.02248 9.38357 -10.2258
1 -0.405288 9.32871 -9.48862
1 9.55551 7.1312 1.00769
1 9.421 7.60337 0.220551
1 9.64006 7.0034 -0.490556
1 9.59998 6.37713 0.274379
1 8.72434 6.74159 0.39065
1 8.37275 6.43764 1.20221
1 8.56091 5.54184 0.959644
1 8.45365 4.49957 1.07197
1 9.32766 4.90747 0.995874
1 9.02413 4.86567 0.0882935
1 9.47837 4.45027 8.17776
1 9.32374 3.94048 7.32107
1 8.92553 3.09035 7.0195
1 8.3961 3.86097 6.67104
1 8.2953 4.26901 7.52736
1 8.86527 4.82254 6.95796
1 9.8131 5.02153 7.25412
1 9.5349 5.65404 7.96368
1 9.89569 6.14878 7.18132
1 9.53422 6.91972 6.87515
1 10.145 -9.33378 -10.1508
1 9.61325 -9.00458 10.4428
1 9.51673 -9.934 10.239
1 8.72409 -9.48094 9.89488
1 7.81976 -9.63428 9.96588
1 7.10644 -9.57098 9.24206
1 7.54795 -9.60798 8.41069
1 7.86439 -10.2328 9.13417
1 6.96754 -10.6073 8.66467
1 7.77748 10.4112 8.28441
1 -2.89477 -1.11444 -3.28377
1 -3.36534 -1.82384 -3.66983
1 -4.03209 -2.03819 -4.33042
1 -4.69871 -1.93249 -4.95052
1 -5.3791 -2.31166 -4.36359
1 -5.50832 -1.49248 -3.92935
1 -5.47399 -2.31923 -3.4108
1 -5.12986 -3.16736 -3.2095
1 -5.58983 -3.20844 -2.35876
1 -5.55964 -4.12382 -2.52491
1 1.85573 -7.47402 10.4393
1 1.7005 -7.94742 -10.0335
1 0.851027 -7.89148 -10.5576
1 0.228167 -7.26412 -10.2177
1 0.875924 -7.35649 -9.46709
1 0.920258 -6.44793 -9.68394
1 1.76029 -6.53559 -10.067
1 1.73633 -6.41921 10.3172
1 0.998476 -6.86722 10.6524
1 0.550192 -5.99435 -10.5266
1 9.78898 -0.116628 5.52586
1 10.3672 -0.907798 5.29637
1 10.0747 -1.58237 5.99955
1 10.1999 -2.45864 6.18425
1 -10.2394 -2.30055 6.56554
1 -10.2294 -2.30181 5.60079
1 -9.55951 -2.5253 4.9237
1 -8.75461 -2.18696 4.47478
1 -9.23763 -1.52606 5.03847
1 -10.1417 -1.50794 4.94873
1 -0.416695 -9.50511 -5.80629
1 -1.30089 -9.63022 -5.42199
1 -1.56483 -9.37856 -6.28973
1 -2.26326 -9.20105 -7.00232
1 -1.36595 -9.19007 -7.42324
1 -0.635118 -9.49028 -6.83768
1 -0.4783 -8.76755 -7.46138
1 -0.353296 -7.88075 -7.98435
1 -0.117747 -7.36755 -7.17537
1 -0.593595 -8.13767 -6.75263
1 -5.69786 6.57113 8.40993
1 -5.04884 5.90739 8.49045
1 -4.81968 5.08856 8.93887
1 -4.99463 4.20622 8.55078
1 -5.59828 4.35523 9.36785
1 -5.42756 3.43092 9.66805
1 -4.9136 2.55532 9.71723
1 -4.79647 3.03188 8.8823
1 -3.94038 2.98411 8.36364
1 -3.8213 3.14128 7.43335
1 5.05487 6.05317 9.98093
1 5.2332 5.43323 -10.5507
1 4.50665 5.90052 -10.1275
1 5.20414 6.5049 -10.3849
1 5.96899 7.14642 -10.2428
1 5.95006 7.64339 10.2785
1 5.84029 6.83036 9.88425
1 6.76701 6.4927 9.98839
1 7.25369 6.89127 -10.5492
1 7.42419 7.82902 -10.5729
1 8.00398 6.57121 7.11968
1 7.38318 6.59911 7.83642
1 6.93925 7.36508 7.51587
1 6.29423 7.77245 8.1402
1 6.37985 7.11987 8.84015
1 7.20874 7.60039 8.58785
1 7.90692 6.92831 8.69456
1 7.82206 6.80724 9.64068
1 8.38139 7.46732 9.98316
1 9.08938 6.84629 10.1272
1 5.16887 9.26205 -10.0001
1 6.07729 9.48775 -9.74282
1 7.01194 9.82594 -9.82026
1 6.39116 10.5663 -9.84252
1 6.22126 10.0835 -10.671
1 6.69008 10.5592 9.99574
1 5.87549 10.2907 9.69432
1 6.37114 9.44185 9.70817
1 7.05235 9.93058 9.2597
1 6.62982 9.45725 8.4922
1 -2.61708 -3.07868 2.31908
1 -3.04967 -3.83019 1.81411
1 -3.12141 -4.27618 2.71916
1 -3.3638 -3.50753 3.16966
1 -4.22022 -3.89169 2.99252
1 -4.4429 -3.84269 3.93899
1 -4.19513 -4.53213 4.61041
1 -4.21492 -5.15109 3.8707
1 -3.75412 -5.73104 3.27374
1 -4.16407 -6.33346 3.92116
1 10.6713 -4.78427 2.69344
1 9.8477 -5.20051 2.6687
1 9.02758 -4.80585 2.39196
1 9.06737 -5.65644 2.07046
1 9.74013 -6.28986 1.59714
1 8.91807 -6.59966 1.22714
1 8.84545 -7.4945 0.939239
1 9.42075 -7.88949 0.183097
1 9.09241 -8.47549 0.812373
1 8.1477 -8.30326 0.777596
1 9.21661 2.87248 9.65961
1 8.40051 2.36219 9.97327
1 8.24864 3.02327 9.37914
1 7.7863 3.29304 10.2107
1 7.50163 3.65812 9.33896
1 7.89262 4.53234 9.11971
1 8.4365 4.13572 9.76579
1 8.81298 3.43569 10.3942
1 8.60194 2.78533 -10.2943
1 7.93289 2.2701 -9.66543
1 -4.66744 3.64202 7.64021
1 -4.12893 4.39736 7.7966
1 -3.87341 4.67271 8.6872
1 -4.1335 5.36878 8.10149
1 -3.69285 6.18774 7.9692
1 -2.87788 6.20868 7.49776
1 -2.77143 6.10361 6.52165
1 -1.99113 6.1524 5.95905
1 -1.69457 5.94213 6.83479
1 -0.966172 6.65385 6.8878
1 6.63118 -8.13068 6.7211
1 7.13705 -8.84558 6.97562
1 8.1568 -8.95054 6.78449
1 7.88999 -8.88558 7.70307
1 7.24568 -8.65956 8.4028
1 7.95903 -8.70921 9.05647
1 8.60502 -9.35344 8.78855
1 9.371 -9.91391 8.44033
1 8.80505 -10.6427 8.84461
1 8.68887 10.0846 8.0932
1 4.01521 1.21924 -2.21386
1 3.30075 1.65004 -2.77343
1 2.95967 1.34557 -1.94579
1 2.73215 1.84836 -1.19656
1 1.90697 2.22175 -0.882671
1 1.6198 2.89256 -1.43831
1 1.06251 3.64765 -1.3933
1 0.541007 2.83741 -1.597
1 1.00989 3.15668 -2.44923
1 0.35319 3.86775 -2.1533
1 -6.97763 0.264249 -0.207304
1 -6.09048 0.639897 -0.24281
1 -6.07115 -0.17307 -0.654866
1 -6.8844 -0.33151 -1.13717
1 -6.47664 0.501569 -1.21614
1 -5.59062 0.727582 -1.38826
1 -5.00843 0.495224 -0.574139
1 -4.62234 1.22887 -1.07856
1 -4.44793 1.86315 -0.408257
1 -5.44696 1.75975 -0.681508
1 -3.1533 9.95348 -8.40207
1 -2.40843 10.3371 -8.78722
1 -2.12917 -10.0984 -8.44123
1 -2.25126 -9.14284 -8.1196
1 -1.37488 -8.79792 -8.38451
1 -1.5301 -8.34352 -9.21835
1 -2.08562 -8.00073 -8.48896
1 -2.47702 -7.21041 -8.17559
1 -1.98425 -7.12587 -7.27751
1 -1.34372 -7.87184 -7.44022
1 1.34421 8.03271 -2.33379
1 2.25163 7.95746 -2.04649
1 3.03403 8.08706 -1.49574
1 3.97144 8.1939 -1.76514
1 3.47298 8.48832 -2.57637
1 4.3606 8.30608 -2.73694
1 4.3968 8.55714 -3.62723
1 3.70148 9.19534 -3.37977
1 4.21484 9.92477 -3.70043
1 4.67754 9.4459 -2.95528
1 3.60949 -6.19999 -1.42923
1 3.4412 -5.41262 -0.939348
1 4.07163 -5.35554 -0.269493
1 4.16701 -6.23287 0.026354
1 4.11115 -6.71117 0.853869
1 3.16306 -6.87085 0.816034
1 2.25079 -7.35484 0.8485
1 1.87814 -7.40231 1.78944
1 1.12618 -7.23211 1.22136
1 1.61118 -6.47046 1.33147
1 1.85345 -5.15945 -3.54556
1 1.15588 -5.81361 -3.34638
1 0.875191 -5.12264 -3.93528
1 0.0956827 -5.50606 -3.39477
1 -0.133521 -6.4621 -3.263
1 0.225515 -6.81654 -2.38893
1 -0.686811 -7.02546 -2.33361
1 -1.1755 -6.81512 -3.15511
1 -1.53164 -7.76236 -3.36483
1 -2.42497 -7.46641 -3.47548
1 3.72598 -5.4741 -8.68544
1 2.92614 -5.23563 -9.16309
1 3.11646 -5.24659 -10.1609
1 3.62532 -5.66909 10.4426
1 4.27718 -5.02871 -10.6696
1 4.66908 -4.56762 9.89115
1 4.10029 -4.85576 9.2409
1 3.43036 -4.33298 8.84907
1 3.96843 -3.75219 8.31571
1 4.45065 -4.55868 8.23752
1 10.3305 -0.824655 8.99227
1 10.2061 -0.649227 9.96963
1 9.81663 -0.495906 -10.5102
1 8.86289 -0.435627 -10.4191
1 7.98676 -0.828922 -10.4167
1 8.03996 -0.877335 9.97522
1 8.29254 -0.000465789 9.71741
1 8.04371 0.232064 10.6046
1 7.8051 0.111667 -9.84746
1 8.54805 0.458039 -9.28825
1 3.17611 -5.35937 3.14773
1 2.56807 -6.0554 2.99057
1 2.03509 -5.82821 2.22075
1 1.40915 -6.54389 2.26878
1 1.07579 -6.11524 3.06719
1 0.997694 -7.09062 3.30019
1 0.337019 -7.43543 3.87715
1 -0.117325 -6.77792 3.37783
1 -0.912484 -6.34637 3.78267
1 -1.32515 -6.79627 3.00616
1 4.29082 3.63354 -8.57209
1 4.63781 4.42318 -8.0312
1 5.34294 4.88922 -8.54782
1 5.25231 5.61916 -7.93915
1 4.44905 6.13596 -7.8196
1 3.70356 6.19736 -7.17115
1 3.97688 5.51687 -6.54793
1 4.16431 6.37833 -6.17533
1 4.5986 7.18091 -5.86577
1 5.40775 6.98351 -6.48213
1 2.42554 8.51662 8.35835
1 2.54288 9.37856 7.86858
1 2.43434 9.43819 6.92135
1 2.05893 9.74145 6.08688
1 1.26428 10.0872 5.6029
1 1.05265 9.93506 4.7135
1 1.87566 10.0026 4.11513
1 2.71266 10.2481 4.40143
1 2.60325 10.1261 5.34242
1 3.18143 9.61325 5.98012
1 -9.01583 8.63215 5.90855
1 -8.8603 7.79438 5.43181
1 -9.60218 7.14971 5.15528
1 -9.24401 7.05932 4.24379
1 -9.89834 6.50281 3.98982
1 -10.3073 7.31608 4.15854
1 -10.4869 6.61509 4.92093
1 10.0686 7.08919 4.74683
1 9.74681 7.44137 5.54057
1 9.76385 8.4035 5.26547
1 -8.52397 0.833472 -6.74365
1 -9.11927 1.5957 -6.58105
1 -8.72864 2.45132 -6.98881
1 -9.61116 2.27568 -7.22791
1 -10.0337 2.92879 -6.66457
1 -9.90175 3.69587 -7.15164
1 -9.09039 4.0297 -6.72217
1 -8.21591 4.31515 -6.85527
1 -7.59641 4.71086 -6.22912
1 -6.72591 4.90182 -5.88771
1 -5.16421 -4.273 -0.574047
1 -5.05942 -4.8016 0.157724
1 -5.67001 -5.5363 0.129595
1 -6.47672 -5.56477 0.609631
1 -6.54174 -5.91074 -0.396228
1 -6.02134 -6.84761 -0.281897
1 -5.69709 -6.077 -0.832571
1 -4.80925 -6.28848 -0.663969
1 -3.88257 -5.94109 -0.615363
1 -2.9419 -6.17177 -0.694201
1 -2.59802 6.51808 -5.1835
1 -2.61267 5.55193 -5.64365
1 -2.07321 5.36835 -4.90148
1 -2.37508 4.59229 -4.29043
1 -1.96294 3.73925 -4.26829
1 -2.53572 3.66958 -5.08197
1 -1.65506 3.74697 -5.54987
1 -1.72114 4.71068 -5.69838
1 -1.85536 4.88449 -6.68216
1 -1.13491 5.30415 -7.19669
1 6.92249 7.11912 -7.68973
1 7.75661 6.77708 -8.02464
1 8.22053 7.17505 -8.77554
1 9.15317 6.90771 -8.80546
1 10.0297 6.58602 -8.4678
1 10.0324 6.78961 -7.53514
1 9.14974 6.48219 -7.6881
1 8.9537 7.44853 -7.69213
1 8.2929 7.90613 -8.20363
1 7.45471 8.31122 -7.8217
1 -7.45653 4.44556 -9.83431
1 -8.37216 4.40278 -9.48911
1 -9.06931 4.39083 -10.2184
1 -9.9846 4.40348 -9.90486
1 -10.3083 3.4349 -10.1056
1 -10.1629 2.4913 -9.68054
1 -10.0935 1.84728 -9.02561
1 10.2917 1.97569 -9.16104
1 10.5612 2.5185 -8.34446
1 -10.1505 3.04232 -7.94133
1 8.41556 5.32131 5.11947
1 8.29303 6.24154 5.00456
1 8.77525 7.06326 4.99714
1 9.25697 7.70826 4.49749
1 8.81472 8.06872 5.19803
1 7.93822 8.3464 5.06163
1 8.02597 8.1011 6.01381
1 8.26655 7.29606 6.46589
1 8.97946 7.98561 6.25865
1 9.06706 8.01062 7.29042
1 3.6985 -8.20715 10.412
1 4.68557 -8.23278 10.2302
1 4.44886 -8.20837 -10.183
1 5.2593 -8.44984 -9.74368
1 5.52377 -8.11983 -10.6349
1 5.26487 -7.3852 -10.1865
1 5.99875 -7.10295 10.53
1 5.97008 -6.43609 9.76331
1 5.45256 -5.73395 10.24
1 4.54599 -5.66563 9.96982
1 4.34227 -9.18909 -9.3443
1 4.55756 -10.0824 -9.06043
1 4.30704 -9.82302 -8.17257
1 4.54016 -9.97545 -7.20598
1 4.30193 -9.10111 -6.99396
1 3.86793 -9.00028 -6.15837
1 3.56695 -9.87658 -6.53181
1 4.09535 -10.5608 -6.05326
1 4.38158 9.9942 -5.58069
1 3.48992 10.3798 -5.35304
1 9.44181 6.28789 3.18807
1 8.54075 5.91423 3.26081
1 8.6066 4.96403 3.59731
1 9.5611 5.05105 3.44043
1 9.36815 4.37229 2.76809
1 9.27807 3.56146 2.31917
1 9.39185 3.91402 1.4878
1 9.85247 4.64876 1.80442
1 10.3227 3.89578 2.12805
1 10.3655 3.8716 1.23317
1 -10.4775 -7.10922 -7.64156
1 -9.66611 -6.65131 -8.03642
1 -8.92657 -6.51587 -8.64235
1 -8.12098 -6.04441 -8.89779
1 -8.64486 -6.37337 -9.6283
1 -8.33152 -7.14932 -9.12986
1 -7.89565 -7.99296 -8.89417
1 -7.75629 -8.99017 -8.83806
1 -6.92469 -9.2754 -8.57893
1 -6.69637 -8.9255 -7.79316
1 8.1876 -6.53567 -7.2761
1 7.62793 -7.16932 -6.83942
1 6.69957 -7.10982 -6.84322
1 6.16887 -6.32627 -7.01499
1 6.05046 -5.62317 -7.74413
1 6.2425 -4.73574 -8.09866
1 5.2931 -4.92876 -7.79231
1 5.02733 -5.37123 -6.95678
1 5.50777 -4.59673 -6.8498
1 5.24953 -4.88385 -5.94068
1 3.44192 -4.795 2.32252
1 3.33524 -5.70855 2.21693
1 4.03932 -6.43508 2.08207
1 4.58081 -7.09568 1.591
1 3.68142 -7.46304 1.65404
1 4.18368 -7.56708 2.52289
1 4.12142 -8.31009 1.94614
1 4.48178 -9.10276 1.76777
1 4.03304 -9.38012 2.55041
1 4.1769 -10.125 1.99707
1 -8.90866 -0.720142 8.71239
1 -9.54818 -1.23954 8.28772
1 -9.21895 -2.06307 7.95922
1 -9.23541 -2.88419 8.50115
1 -9.31115 -3.49309 7.7513
1 -8.97744 -4.3377 8.20766
1 -9.05907 -5.24195 8.68567
1 -9.82386 -4.59506 8.92715
1 -9.99436 -3.95269 8.23233
1 10.4309 -3.97668 8.02972
1 -6.02648 3.92898 -3.81968
1 -5.78181 3.63187 -4.6296
1 -4.98381 3.22971 -4.19497
1 -4.36021 3.75216 -4.71016
1 -4.15202 3.99628 -3.76744
1 -3.58139 4.42342 -4.49995
1 -3.6833 5.00183 -5.3101
1 -3.52672 3.96429 -5.3845
1 -2.75719 4.33627 -5.74799
1 -2.89066 3.39098 -6.14874
1 4.46487 6.30996 8.9861
1 3.60454 5.92267 9.11266
1 3.91191 5.53178 8.25628
1 3.12977 6.08924 8.22249
1 2.78843 6.53483 9.01594
1 3.34948 7.2096 8.52578
1 3.34257 8.14216 8.17946
1 3.09746 7.40453 7.63843
1 2.32728 6.98848 8.0145
1 2.64821 6.39888 7.33505
1 5.42664 -9.31381 -8.98313
1 5.31305 -9.76363 -8.06825
1 5.8643 -8.99451 -7.71054
1 5.80126 -9.4337 -6.8477
1 6.6698 -9.34233 -7.2117
1 6.18477 -10.0509 -7.53079
1 6.66432 10.6427 -7.03608
1 6.21567 10.1825 -7.75892
1 5.34704 10.5966 -7.87134
1 5.99798 -10.4822 -8.56882
1 0.116398 6.13138 -4.49342
1 0.462712 6.97607 -4.13945
1 0.803113 6.68111 -4.97518
1 1.46601 7.1088 -5.46738
1 0.976159 7.81328 -5.05043
1 0.80264 8.60255 -5.57901
1 0.720753 8.76759 -6.50148
1 1.22767 8.16204 -7.04236
1 1.6597 7.32544 -7.25948
1 2.00552 6.92834 -6.43002
1 2.0457 5.7472 -3.43
1 1.83008 5.36448 -2.54861
1 1.03056 5.7926 -2.38552
1 0.820451 5.75058 -1.45716
1 -0.0695398 5.49585 -1.79103
1 -0.0746279 4.60414 -1.25256
1 0.36859 3.86037 -0.750184
1 -0.565856 3.65592 -0.787356
1 -1.16145 2.96387 -1.21342
1 -1.83566 2.69353 -0.598882
1 -2.21072 0.442688 -0.798997
1 -1.37077 -0.152551 -0.867411
1 -1.01479 0.690425 -0.719301
1 -1.1951 0.405605 0.18068
1 -0.599974 -0.153313 0.666437
1 -0.00215314 -0.779338 1.09291
1 -0.459355 -0.323546 1.84202
1 -0.626728 -0.160462 2.70955
1 -0.365847 -0.900873 3.20914
1 0.172131 -0.125125 3.51513
1 -7.57894 -1.00372 9.26355
1 -6.96546 -1.60692 8.99466
1 -6.09308 -1.58855 9.38218
1 -6.80224 -1.35482 10.1035
1 -6.08106 -1.51467 -10.6371
1 -6.17327 -2.47024 -10.3118
1 -5.93895 -2.27038 10.1189
1 -6.00938 -2.56985 9.19064
1 -6.31818 -3.37884 8.82802
1 -5.67356 -4.07039 8.95426
1 1.15085 4.40656 9.30941
1 0.574098 4.78983 10.0135
1 0.156395 5.28957 9.27348
1 -0.389576 4.51245 9.37563
1 -0.571731 3.51038 9.19957
1 -0.85146 2.57589 8.89942
1 -0.028413 2.11838 9.01068
1 0.72168 2.40785 9.47478
1 0.875107 1.56212 9.10667
1 1.74026 1.86396 9.23254
1 -1.7239 -1.5603 -6.60203
1 -1.80804 -0.74025 -7.119
1 -1.4479 -0.412541 -7.95134
1 -1.47902 -0.492101 -8.94665
1 -0.638269 -0.0593197 -8.69542
1 0.201395 -0.451173 -8.52815
1 -0.474826 -1.17937 -8.58568
1 -0.594558 -1.16222 -9.5254
1 -1.31238 -0.989199 -10.0546
1 -2.07178 -0.851791 -10.5912
1 7.34436 -8.10889 -6.85003
1 7.37644 -7.58436 -5.97948
1 8.27384 -7.90511 -5.99344
1 8.63592 -7.09927 -5.56794
1 8.78299 -7.11868 -4.67619
1 9.54961 -7.64182 -4.54032
1 10.2834 -7.94162 -4.06595
1 10.4063 -7.55753 -3.17361
1 10.2157 -6.63931 -3.36848
1 9.56501 -6.77645 -4.0697
1 10.3706 1.42781 4.74515
1 10.3537 2.20778 4.12455
1 -10.3306 1.65654 3.63964
1 -9.93375 1.21724 2.76359
1 -10.4243 1.32747 1.99042
1 -9.91781 0.727412 1.44584
1 -9.02832 1.18158 1.65094
1 -8.54292 1.9868 1.2572
1 -8.24822 2.82445 0.851093
1 -8.71812 3.13176 0.0547271
1 -9.87602 8.92557 3.0015
1 -9.83429 8.85707 3.99896
1 -10.2159 8.98923 4.8989
1 -10.6082 8.2646 4.36613
1 10.1835 9.04536 4.33873
1 10.1632 10.0035 4.17753
1 -10.2398 9.80578 4.27462
1 -9.92855 10.559 4.87643
1 -8.94685 10.5242 4.88994
1 -8.10858 -10.3002 5.00449
1 1.01998 -9.23617 8.32249
1 0.253124 -8.73025 8.6133
1 -0.436736 -8.70564 9.3265
1 -0.227339 -8.55678 10.2942
1 0.407006 -8.84964 -10.4995
1 -0.236782 -9.56583 -10.5733
1 -0.718961 -9.61293 9.94286
1 -1.41895 -9.50006 10.6178
1 -2.19196 -8.88578 10.4062
1 -2.74063 -9.64381 10.5045
1 7.01992 8.69758 -5.63317
1 6.69808 9.56131 -5.41451
1 7.62808 9.57405 -5.17081
1 8.58149 9.42042 -5.00537
1 8.62029 9.46346 -4.03899
1 7.98201 10.1571 -4.27425
1 8.70296 10.5185 -3.72046
1 9.266 10.1178 -3.07223
1 10.0575 10.0524 -2.38996
1 10.0119 9.86787 -1.41331
1 -6.02303 -7.08603 5.18986
1 -6.38893 -7.36287 4.28701
1 -6.53903 -6.39587 4.07621
1 -6.62253 -5.68032 4.665
1 -6.72427 -6.14954 5.47148
1 -7.09132 -7.1081 5.42377
1 -7.31165 -8.00926 5.18452
1 -6.72791 -8.5451 5.71441
1 -5.83025 -7.99773 5.57438
1 -5.08122 -7.4307 5.60079
1 -7.03411 1.90012 -7.77061
1 -7.23683 1.6344 -8.70201
1 -6.58991 0.97471 -8.32887
1 -5.71201 1.12907 -8.05135
1 -5.14833 0.941465 -7.31153
1 -4.88733 1.74634 -7.7422
1 -4.66254 2.63358 -7.93887
1 -4.42525 2.6377 -8.85949
1 -4.01789 2.39216 -9.69397
1 -3.20589 1.92623 -9.37615
1 -1.2986 8.63544 -3.5067
1 -1.19491 8.72241 -4.48132
1 -1.3792 9.66927 -4.57479
1 -1.50579 9.84199 -3.63977
1 -2.31517 9.47027 -4.17818
1 -2.20678 9.01265 -4.99971
1 -2.48993 9.35028 -5.84851
1 -3.22308 8.74884 -6.14426
1 -4.1736 8.75651 -6.30523
1 -4.13422 9.37231 -5.61607
1 -3.7664 7.80294 6.03419
1 -4.36379 8.60366 6.18942
1 -3.49115 8.49727 6.80625
1 -3.1262 9.15465 6.16549
1 -2.34292 9.56473 5.9542
1 -2.94651 10.2294 6.17625
1 -3.82156 9.88995 6.4144
1 -4.07763 -10.6383 6.01258
1 -3.54815 -10.3795 6.76157
1 -3.8438 -9.77272 7.50349
1 8.66327 7.91138 -6.67881
1 8.62612 8.60691 -7.37887
1 8.49539 9.25013 -6.71354
1 7.92595 8.97048 -6.02508
1 7.38139 8.85031 -6.83353
1 7.01972 7.90627 -6.88586
1 7.71475 7.69018 -6.28769
1 7.88932 7.38927 -7.23888
1 8.31289 6.90117 -6.53563
1 7.39434 6.55596 -6.80175
1 6.02564 7.5311 5.34512
1 5.2137 7.36684 5.78465
1 5.18248 7.46303 6.70752
1 4.70777 6.57957 6.7076
1 4.87602 5.95585 6.0333
1 4.50328 5.13708 5.76579
1 3.64526 5.35968 5.99032
1 3.25492 6.1699 6.36311
1 3.7513 5.86817 7.1607
1 2.83428 5.43252 6.83178
1 6.71685 0.13904 8.73166
1 6.69134 0.0929248 7.74505
1 6.24153 0.862201 8.17113
1 6.17836 0.912653 7.25148
1 6.66656 0.882764 6.39724
1 7.47963 0.974 6.02807
1 8.18677 1.44125 5.64674
1 8.046 2.08357 4.91288
1 7.8511 2.4824 4.06077
1 7.34138 1.63232 3.96484
1 -6.97139 0.896214 0.776987
1 -7.78027 1.18111 1.30483
1 -7.26315 1.94079 1.18804
1 -6.45772 1.52272 1.49836
1 -5.73108 2.05055 1.83574
1 -6.4723 2.43663 2.24408
1 -6.5437 2.57636 3.22392
1 -7.23556 2.2142 3.77023
1 -8.00001 1.99349 4.2273
1 -8.89156 1.76007 4.35875
1 6.21999 -6.21613 5.90292
1 6.48417 -5.37628 6.32108
1 5.8089 -5.80148 6.80445
1 6.36992 -5.99196 7.50989
1 6.63587 -5.12003 7.92459
1 6.27046 -4.34595 8.3225
1 6.03648 -4.11789 9.21813
1 6.98852 -3.86749 9.00559
1 7.22327 -4.05018 8.06162
1 8.17596 -4.08891 8.51622
1 9.42505 1.08053 -9.32872
1 9.27628 2.02956 -9.38983
1 9.39365 2.22467 -8.46647
1 9.93624 1.54553 -8.05331
1 -10.4605 1.69868 -7.70615
1 10.6611 0.729878 -8.03841
1 -9.86321 1.17767 -8.30244
1 -9.2969 1.97774 -8.24955
1 -8.43073 1.84279 -7.82388
1 -8.15097 0.97467 -8.15977
1 7.50187 -3.12439 1.54491
1 7.66147 -2.30693 1.97311
1 7.81743 -2.66921 2.85163
1 8.50035 -3.03111 2.30413
1 9.08176 -2.42767 2.84201
1 8.69243 -1.71693 2.28704
1 9.36318 -1.41279 1.63061
1 10.1805 -1.22875 1.22341
1 -10.3447 -1.60473 1.50015
1 -10.5878 -2.48877 1.12646
1 -9.5744 9.38535 0.785887
1 -9.53759 10.3081 0.451869
1 -9.40753 -10.1154 0.251577
1 -10.1082 -9.54952 -0.0807007
1 10.4171 -9.32677 0.35552
1 10.051 -8.67491 -0.241545
1 9.34779 -9.23833 0.0238118
1 9.35709 -9.49523 0.931834
1 8.46321 -9.30149 1.07728
1 8.3811 -9.93924 1.73737
1 -0.0303411 10.2471 4.64762
1 -0.273188 9.39414 4.36936
1 -1.03138 9.95868 4.26389
1 -0.477952 10.4531 3.6043
1 -0.260594 9.8513 2.70816
1 -1.11052 10.1447 2.2435
1 -1.19244 9.9708 1.34252
1 -1.35379 9.44272 0.546771
1 -2.0692 8.84925 0.681698
1 -2.43483 9.35851 1.39483
1 0.354782 -0.0144372 -1.29304
1 -0.149263 0.258556 -0.405316
1 0.0702882 0.996517 -1.04373
1 -0.618531 0.721076 -1.72946
1 -1.27395 0.184083 -2.10521
1 -2.11773 0.0464409 -1.78547
1 -2.30397 -0.133174 -2.71054
1 -3.24738 -0.162287 -3.04503
1 -4.11861 -0.265 -3.31983
1 -3.84877 -0.81255 -2.56417
1 2.17878 1.04736 7.41026
1 1.40276 1.61938 7.45308
1 2.22355 2.08525 7.28098
1 3.18601 2.12606 7.28808
1 2.9308 1.57816 8.05726
1 3.05755 2.0992 8.85732
1 3.61403 1.42404 9.31569
1 3.99276 0.529197 9.30893
1 4.77208 0.0687317 9.10085
1 5.43497 -0.461725 8.7409
1 -5.41616 -9.07384 5.80196
1 -4.96801 -8.41451 5.3092
1 -4.82699 -9.00094 4.56361
1 -5.11715 -8.17707 4.29733
1 -4.39273 -7.43859 4.18373
1 -5.29864 -7.42644 3.64878
1 -5.13118 -6.72432 3.01902
1 -4.32104 -7.31094 3.1819
1 -4.45885 -8.30057 3.42435
1 -3.83756 -8.47201 4.17601
1 4.10743 8.22564 -4.81105
1 3.80632 8.04834 -5.6881
1 4.71267 8.20585 -5.85818
1 4.92339 8.10849 -6.83636
1 5.86161 7.94426 -6.5225
1 6.57433 7.63877 -5.98396
1 7.03613 6.85177 -5.83204
1 7.08422 5.94473 -5.90734
1 6.30065 6.13132 -6.45965
1 6.33502 6.97379 -6.83015
1 -3.75538 2.79425 -0.357836
1 -2.87693 2.46014 -0.71429
1 -2.76963 3.06527 0.00251206
1 -1.96036 2.9543 0.515452
1 -1.24428 2.45678 0.913329
1 -1.93136 1.73849 1.10657
1 -1.35419 1.36782 0.479442
1 -2.13978 0.809662 0.313361
1 -2.49166 0.00951416 0.714557
1 -1.6583 0.0370321 1.21922
1 8.60608 -4.5973 -2.2924
1 9.33542 -4.33387 -1.7109
1 9.90683 -5.06446 -1.51216
1 9.07445 -5.49021 -1.58668
1 8.99592 -5.7218 -0.686795
1 8.17849 -6.00188 -1.09264
1 8.09874 -5.24119 -0.521078
1 8.23985 -4.42151 -1.05972
1 7.65826 -4.96832 -1.56873
1 7.75329 -4.05804 -1.95569
1 -7.10985 4.36448 6.10471
1 -7.74438 4.66204 6.75008
1 -7.99459 3.8698 7.33978
1 -8.30849 3.71425 6.45235
1 -8.07461 3.60896 5.54079
1 -8.20284 4.58536 5.74156
1 -8.13837 4.54335 4.7203
1 -8.36363 5.42531 4.68498
1 -7.87623 5.98248 5.36633
1 -7.86318 6.87529 5.06431
1 -10.5773 6.89518 -9.20027
1 -9.99914 7.44645 -9.86792
1 -9.95974 8.05141 -10.5942
1 -10.016 8.50497 -9.75102
1 -10.5252 8.43402 -9.01838
1 -10.6343 9.3269 -9.34444
1 -9.79062 9.61387 -9.51306
1 -9.57036 10.0228 -8.67464
1 -9.64591 9.05409 -8.68189
1 -8.72847 8.83584 -8.97768
1 3.10804 -9.68588 0.226979
1 2.92665 -10.4084 0.848423
1 3.84207 -10.5033 0.925325
1 3.73664 -9.60512 1.18352
1 3.06322 -9.94348 1.73182
1 3.19375 -10.0356 2.66717
1 2.49226 10.5902 2.40621
1 2.02434 -10.0574 1.88787
1 1.55511 -9.23595 1.88532
1 1.17086 -9.79779 2.55098
1 2.78766 1.14642 -7.81467
1 2.32508 1.64877 -8.53023
1 1.73918 0.866609 -8.30287
1 0.873417 1.18383 -8.05174
1 0.0731814 0.57109 -7.92907
1 0.113619 0.0728824 -7.01382
1 -0.850258 -0.247146 -6.88018
1 -0.970219 0.515518 -7.47909
1 -0.459727 1.29199 -7.23277
1 0.502598 1.23488 -6.96334
1 2.22846 -3.84942 -0.193225
1 2.08856 -4.35425 0.643746
1 2.23323 -4.25724 1.66738
1 1.35313 -3.98968 1.29137
1 0.555565 -3.4759 1.08441
1 1.13883 -2.87969 0.627289
1 2.00894 -3.24564 0.637186
1 1.93809 -2.29715 0.495947
1 2.83369 -2.36154 0.259187
1 3.46389 -1.71049 -0.0219747
1 -1.94718 -7.6841 -1.68437
1 -1.16153 -7.98998 -2.08649
1 -1.78361 -8.65672 -2.25369
1 -2.28111 -9.49093 -2.66907
1 -3.12843 -9.0762 -2.96515
1 -3.11268 -9.33339 -2.00973
1 -3.45959 -8.34669 -1.94794
1 -2.59344 -8.52498 -1.64326
1 -2.55636 -8.15748 -2.58883
1 -2.83274 -7.37877 -2.28454
1 9.64581 8.73786 10.1245
1 10.5158 9.1417 9.9305
1 10.3622 9.18342 -10.4097
1 -10.0866 9.45017 -10.4879
1 -9.53931 8.91876 10.3165
1 -9.12124 9.84899 10.441
1 -8.69829 10.1684 9.59918
1 -8.69134 -10.4224 10.2146
1 -7.84107 -10.2863 9.79496
1 -7.99042 10.6112 8.929
1 1.37902 4.56351 -5.85047
1 2.23754 4.81564 -6.21853
1 2.62025 4.46696 -5.47785
1 3.59383 4.31485 -5.32089
1 3.68017 5.31259 -5.46325
1 4.56041 4.96014 -5.61695
1 4.99853 4.20205 -5.95619