8000
Atoms. Timestep: 0
1 -7.04443 2.36366 -5.98667
1 -6.4155 1.65656 -5.78648
1 -5.63959 1.16476 -5.94421
1 -6.15599 1.17451 -6.77642
1 -7.08184 1.0871 -6.53119
1 -7.79769 1.59931 -6.20469
1 -8.17828 2.14308 -6.89137
1 -7.91598 3.14894 -6.94664
1 -8.83116 3.12298 -6.8441
1 -9.7557 3.33066 -6.93669
1 3.202 -9.6365 8.62969
1 4.16091 -9.5931 8.70088
1 3.79482 -8.77983 9.06873
1 4.06221 -9.34703 9.75346
1 4.77086 -8.93427 9.26545
1 5.63574 -8.61149 9.35076
1 6.39977 -8.27461 8.96795
1 7.36169 -8.03561 9.01292
1 7.83095 -7.55761 9.70951
1 8.45023 -7.99229 10.2649
1 -7.12846 0.550401 8.55852
1 -6.44853 0.0313267 8.17857
1 -5.83922 -0.303076 8.89504
1 -5.51436 -0.919306 9.62085
1 -5.04091 -1.02622 8.81219
1 -4.29232 -0.785017 8.33493
1 -4.3937 0.0142103 7.77818
1 -5.2739 -0.407325 7.99234
1 -5.25589 -0.824241 7.19753
1 -4.76055 -1.52774 7.49273
1 2.48817 -2.33728 0.226583
1 1.71981 -2.80664 0.151223
1 1.41076 -1.96346 -0.157171
1 0.6281 -1.45688 0.223433
1 0.97498 -0.512232 0.144119
1 1.81272 -0.812671 -0.0577099
1 2.01093 -1.42233 0.643532
1 2.82699 -1.35325 0.0826531
1 3.4198 -2.09841 -0.0386998
1 3.51618 -2.88114 0.553084
1 3.28804 -5.35614 -5.04065
1 2.78112 -4.96139 -4.32941
1 2.56569 -4.58891 -5.17802
1 2.26697 -5.49731 -5.09843
1 2.61653 -6.40778 -5.24249
1 3.33085 -6.77804 -4.71755
1 3.11709 -6.70409 -3.75412
1 2.4407 -6.17491 -4.11571
1 1.62351 -6.12523 -4.52551
1 1.31055 -6.0815 -3.65694
1 -4.95056 0.627435 -0.897494
1 -4.46429 1.20058 -0.201225
1 -4.69974 1.14464 0.736768
1 -4.46328 0.283282 1.0741
1 -3.98955 0.398768 0.277436
1 -3.34721 -0.197292 -0.0304552
1 -2.5865 -0.39838 -0.580888
1 -3.17838 -1.00378 -1.0412
1 -2.94466 -1.73622 -1.63925
1 -2.55557 -1.97956 -2.54309
1 8.69477 10.2135 -8.82413
1 8.20373 10.1737 -9.60184
1 7.53074 10.1517 -8.90072
1 7.80514 9.29141 -8.62987
1 7.39961 9.75725 -7.88146
1 6.61844 9.63646 -7.35328
1 5.76615 9.32187 -7.77994
1 5.01091 8.71689 -7.77687
1 4.76506 9.62616 -7.39169
1 5.08197 10.2582 -8.06813
1 -10.3066 6.65838 -3.35518
1 10.0666 7.3621 -3.12701
1 10.2143 8.32091 -3.19309
1 -10.1762 8.9886 -2.77255
1 -9.61348 8.90902 -3.55822
1 -10.4351 9.0807 -3.91249
1 -10.2725 8.24186 -4.3243
1 10.2793 8.79576 -4.99029
1 9.71857 7.97945 -4.78598
1 9.77225 7.09159 -4.40682
1 -3.57729 -8.01668 -0.658155
1 -2.66381 -8.06339 -0.963228
1 -2.13151 -8.74582 -1.39651
1 -2.67149 -9.25825 -0.839203
1 -3.34055 -9.14993 -1.52987
1 -2.58484 -9.45536 -2.01686
1 -1.65973 -9.46026 -1.81658
1 -1.98756 -10.2972 -1.36825
1 -1.92796 -9.74833 -0.497313
1 -2.65147 -10.4042 -0.389575
1 8.38928 2.73942 3.09205
1 7.53653 2.34329 3.27314
1 6.98744 1.73113 3.78947
1 7.64211 1.06746 3.50215
1 6.86506 0.667454 3.12688
1 7.03847 0.830298 2.17951
1 7.21121 -0.0376613 1.80292
1 7.70628 0.261459 0.971456
1 7.41822 0.483166 0.145419
1 7.45939 0.28571 -0.784822
1 8.59485 6.79998 -2.601
1 9.06764 6.07535 -2.98314
1 9.13979 6.77863 -3.63498
1 8.80989 7.36479 -4.25777
1 8.92733 7.7002 -3.34707
1 8.00815 7.80833 -3.54423
1 7.08185 7.66133 -3.76885
1 6.68638 8.29301 -4.39861
1 6.07576 8.56271 -5.16668
1 5.49439 8.39069 -5.92733
1 -7.3535 8.63391 -8.61655
1 -6.98647 8.11989 -7.82605
1 -6.58053 7.96135 -8.66307
1 -6.10451 8.69098 -8.1815
1 -6.81418 9.14263 -7.59599
1 -7.18413 9.0159 -6.71782
1 -6.87215 9.94752 -6.79783
1 -7.71776 9.89047 -7.1954
1 -8.05882 9.05659 -7.46729
1 -8.9584 9.16266 -7.34798
1 9.00636 -10.2017 -7.85217
1 8.03964 -10.375 -7.53922
1 8.27727 -9.4491 -7.70387
1 8.21098 -9.86522 -8.54833
1 8.03511 -8.99462 -8.882
1 7.23695 -8.46264 -9.04201
1 6.95209 -9.39442 -8.89704
1 7.57927 -9.81168 -9.43329
1 8.5153 -9.7855 -9.639
1 9.24379 -9.18396 -9.67502
1 0.353853 -0.272938 7.45343
1 -0.558125 -0.50552 7.16631
1 -1.38374 -0.532305 6.60064
1 -1.41662 -0.35675 5.67877
1 -1.77223 -1.19914 5.47776
1 -2.71067 -1.19361 5.76318
1 -3.12822 -0.777841 6.53166
1 -2.32791 -0.279173 6.20442
1 -2.67734 0.511362 6.57975
1 -3.40428 0.874284 6.06432
1 6.30126 6.70452 7.80174
1 6.27054 6.47318 8.77801
1 6.45648 7.39355 8.76525
1 6.99346 8.10642 8.52067
1 7.77345 8.16972 9.09731
1 7.6473 7.31263 8.62744
1 7.33699 7.21861 7.74121
1 6.4674 7.67435 7.70059
1 5.70713 8.21973 7.84851
1 5.7093 8.34069 8.81403
1 8.2376 -6.50245 9.558
1 7.64753 -6.64938 8.87687
1 6.70916 -6.32241 8.9514
1 5.70088 -6.42317 8.99298
1 5.05356 -5.61641 9.19725
1 4.09237 -5.69407 9.16572
1 3.79447 -6.60498 9.06774
1 3.16563 -6.86773 8.38961
1 2.41862 -7.26221 7.75992
1 1.78836 -6.59873 7.59231
1 6.49796 -6.31199 -3.81746
1 5.61404 -6.68568 -3.72502
1 5.31793 -6.00299 -3.06966
1 4.43533 -5.76937 -2.7563
1 4.05277 -5.09757 -3.31782
1 4.56039 -4.7139 -2.58376
1 5.32273 -4.59237 -3.07825
1 4.72864 -4.36223 -3.75576
1 4.49949 -3.29312 -3.55064
1 4.7601 -3.63714 -2.69788
1 3.63942 -10.1715 0.958127
1 2.75978 -9.82988 0.903215
1 2.01151 -10.3003 0.630561
1 1.87256 -9.47925 1.18231
1 1.78229 -8.8334 1.85945
1 1.48339 -7.95755 1.69858
1 0.555912 -8.07337 1.48054
1 -0.0114909 -8.94332 1.26359
1 -0.366407 -9.80032 1.55496
1 -1.06411 -9.42467 0.914485
1 7.729 3.39664 3.76924
1 7.7156 2.83536 4.54735
1 6.83125 2.84783 4.071
1 6.83921 3.7674 3.87892
1 6.86862 4.07936 2.93911
1 6.61867 4.80262 3.50338
1 6.00714 5.38665 3.04981
1 5.18641 5.34512 3.56499
1 5.0265 5.13555 2.61123
1 4.98737 4.30647 2.13016
1 -7.06596 -5.2055 -8.20358
1 -7.21171 -5.44649 -7.35033
1 -7.00273 -4.51489 -7.3775
1 -6.72728 -4.24792 -6.51679
1 -7.30082 -3.46068 -6.56827
1 -7.79879 -4.27789 -6.47661
1 -8.30932 -3.56863 -6.12629
1 -8.57967 -3.27039 -6.98727
1 -8.66658 -2.36387 -7.32142
1 -8.35936 -1.93688 -8.32318
1 2.09319 10.3424 1.60041
1 2.47293 9.90967 2.32513
1 3.10819 10.3586 1.83702
1 3.91193 -10.1206 2.07666
1 4.3854 10.2391 1.59273
1 3.91679 9.36471 1.68321
1 3.76956 8.55044 2.20905
1 2.99745 7.98915 2.01214
1 3.22615 8.19815 2.9591
1 2.73754 9.03859 2.86975
1 2.02355 7.80396 -3.14868
1 1.67007 6.92892 -3.37156
1 1.19268 6.14197 -3.10739
1 2.15781 5.97817 -2.96472
1 2.69033 5.68414 -2.08877
1 3.17122 4.84414 -1.99615
1 3.18061 5.10728 -2.93671
1 4.05761 5.40352 -3.04759
1 4.9205 5.45242 -3.54834
1 4.1033 5.26239 -4.11713
1 -9.51278 -9.00234 5.3754
1 -9.07512 -8.26589 4.93203
1 -10.0204 -8.07853 5.08429
1 -10.4703 -8.4835 5.81128
1 10.4695 -8.20549 6.79886
1 10.2297 -7.6592 7.55896
1 -10.3145 -7.13886 8.24458
1 9.87593 -7.53588 8.74151
1 9.97719 -8.3736 8.31686
1 9.03186 -8.11425 8.2313
1 -7.45006 -1.00259 -10.2872
1 -8.25388 -1.49853 10.394
1 -8.49125 -2.41178 -10.4318
1 -9.19268 -1.83165 -10.2801
1 -9.44712 -1.21087 -9.65629
1 -9.21656 -1.83394 -8.98456
1 -9.17108 -2.60713 -9.52087
1 -9.7948 -3.34468 -9.57763
1 -9.22999 -3.26116 -10.3511
1 -10.0309 -2.83685 10.3124
1 -3.0445 7.15758 9.06769
1 -3.76498 7.21418 9.64741
1 -4.68556 7.21621 9.54053
1 -4.78725 6.25146 9.49482
1 -5.08127 5.95372 10.3129
1 -5.91534 5.50014 10.1183
1 -5.36095 4.80336 10.3853
1 -5.75877 5.18489 -9.80079
1 -5.59287 5.19816 -8.87319
1 -6.55113 4.96467 -9.02902
1 8.41436 10.1918 9.0894
1 7.77981 10.0638 9.79993
1 7.51452 9.19676 9.5073
1 7.65841 9.25195 10.4558
1 7.5787 8.33301 10.21
1 8.59047 8.34281 9.95298
1 9.04923 7.85316 9.23336
1 9.80901 7.42232 8.84043
1 9.95773 6.7489 9.5942
1 9.39425 6.00238 10.0746
1 -0.905926 4.86924 0.700852
1 -1.83579 4.76908 0.311745
1 -2.13369 3.84643 0.383834
1 -2.88043 4.45751 0.411826
1 -2.89193 5.20539 1.07634
1 -2.74843 5.59845 1.97665
1 -2.07842 6.26183 1.77752
1 -1.23906 6.42025 1.21673
1 -1.18248 6.67267 0.268736
1 -1.22326 5.97963 -0.434562
1 -10.1407 -4.41434 -5.05181
1 9.86709 -4.42582 -4.82954
1 10.1147 -4.09023 -5.69055
1 10.3706 -3.27591 -6.13413
1 -9.92643 -3.6654 -6.80939
1 -9.17523 -4.08553 -7.40911
1 -8.64208 -4.02771 -8.18267
1 -8.82918 -3.19443 -8.58747
1 -9.40014 -2.78645 -7.91031
1 -10.015 -2.96549 -8.61088
1 2.90869 6.92743 8.49809
1 3.17278 7.43528 9.21858
1 2.30052 7.13752 9.55751
1 1.48974 6.72668 9.27746
1 1.9787 6.26866 8.634
1 2.53009 6.06311 9.40088
1 2.76922 5.27407 9.8749
1 3.68379 5.42123 9.73886
1 3.40083 5.77242 8.89975
1 2.75151 5.0542 8.80764
1 4.23728 5.5936 0.286145
1 3.92087 6.31439 -0.226838
1 4.49552 7.02951 -0.37616
1 3.60226 7.3191 -0.321707
1 2.84842 7.94608 -0.345374
1 2.80063 7.33727 0.372188
1 1.93836 7.3627 -0.136197
1 1.46836 7.85463 0.549369
1 1.95182 7.04778 0.909568
1 1.6004 7.56591 1.68278
1 5.60339 -6.81021 7.17634
1 5.16347 -6.49962 7.98345
1 4.3309 -6.16371 8.23819
1 4.7498 -5.40904 7.88093
1 3.9123 -5.28151 7.22568
1 4.18252 -4.99052 6.35532
1 3.35435 -4.50461 6.24411
1 4.09552 -3.92386 6.33262
1 3.97015 -4.35495 5.42787
1 3.45375 -3.49558 5.62442
1 8.16801 -2.3541 -7.23824
1 7.42826 -2.67946 -7.69109
1 6.94201 -2.21863 -8.41015
1 6.15545 -2.55013 -8.67026
1 6.20898 -2.07034 -9.47647
1 6.0006 -1.53384 -8.76589
1 5.36246 -1.06295 -9.28556
1 5.56952 -0.0861057 -9.14015
1 4.78652 0.0738574 -8.61795
1 4.38694 -0.739652 -8.95671
1 5.33506 -8.64196 -10.1883
1 6.01982 -9.12282 10.3038
1 6.66907 -9.31625 -9.91504
1 6.23197 -10.2509 -10.0866
1 5.65775 -9.54381 -9.68939
1 5.20847 -9.01089 -9.01853
1 4.87583 -8.34656 -8.40382
1 5.64433 -8.54151 -7.82091
1 6.34946 -9.13606 -7.95661
1 6.24153 -8.52545 -8.72458
1 8.39858 4.51146 -10.1383
1 9.00119 4.74863 10.1377
1 9.55791 5.18155 -10.1947
1 10.0194 4.58035 10.1165
1 -10.0717 4.89653 10.0098
1 -9.86065 4.05582 9.54795
1 -9.68121 3.55783 10.3445
1 10.4123 3.65375 -10.1704
1 10.1486 3.19381 -9.34793
1 9.80384 2.81743 -10.1358
1 1.24652 5.61066 -9.89265
1 0.777615 5.75625 -9.02299
1 0.289203 6.35579 -8.42602
1 -0.32995 5.9786 -7.84015
1 0.372241 5.40301 -7.62819
1 0.620298 6.32517 -7.46831
1 1.2127 5.83149 -8.08169
1 1.84543 5.81985 -8.81274
1 2.80533 6.07361 -8.93716
1 3.55235 6.48778 -9.29691
1 -8.77229 -2.44037 4.95578
1 -9.05117 -1.61309 4.53725
1 -9.68126 -0.922527 4.30785
1 -8.77585 -0.580938 4.30317
1 -8.03303 -1.00857 4.8295
1 -8.33101 -1.24958 5.73247
1 -9.20452 -0.999532 6.01597
1 -8.8992 -0.710562 6.81466
1 -8.6465 -1.65291 6.80733
1 -8.81228 -2.19036 6.00214
1 7.86019 0.468402 2.51402
1 7.78687 -0.478959 2.69344
1 6.84493 -0.729146 2.71378
1 6.1457 -0.37803 2.12636
1 5.42152 -0.853083 1.7266
1 4.72636 -0.271739 2.03346
1 5.15227 0.420277 1.55854
1 4.42602 0.493617 0.797805
1 4.24606 1.43007 0.696921
1 3.77998 1.20871 1.55691
1 -6.39646 4.53026 4.92852
1 -6.36591 5.4242 5.21608
1 -5.6178 5.75172 4.64808
1 -5.95662 6.59116 4.7246
1 -6.54566 6.55492 5.44757
1 -6.5164 7.17491 6.13797
1 -6.18681 6.27141 6.36698
1 -5.69244 6.216 7.18985
1 -4.91469 6.42351 6.67997
1 -4.62828 6.28376 5.82978
1 -7.61077 -2.00985 -2.20252
1 -8.07112 -1.71263 -1.42923
1 -8.75513 -1.36294 -0.878818
1 -8.4063 -0.784027 -1.48979
1 -9.34144 -0.851098 -1.7521
1 -9.36887 -0.962442 -2.7008
1 -8.58991 -1.47423 -2.41198
1 -8.05637 -0.700414 -2.62802
1 -8.52633 -0.95582 -3.49339
1 -8.38116 -1.82364 -4.00496
1 3.03163 -6.49007 5.07306
1 3.18041 -6.72987 4.11973
1 3.47445 -6.39878 3.19438
1 3.04085 -7.23928 3.14729
1 2.64062 -7.6086 3.95636
1 1.74995 -7.71404 3.61836
1 2.01827 -8.12449 2.79054
1 1.24195 -7.56835 2.59477
1 1.31037 -6.62541 2.87432
1 2.08703 -6.74876 3.47911
1 3.02897 -5.31488 3.17449
1 2.84195 -4.73455 2.45139
1 2.50626 -4.34478 3.23809
1 2.73726 -3.8191 3.987
1 2.70386 -4.13334 4.92637
1 2.91312 -4.96257 5.48351
1 3.30801 -5.38819 4.67376
1 2.7393 -4.87325 4.11745
1 1.87849 -5.10195 3.76051
1 1.77023 -4.21738 4.10526
1 -0.58457 0.250745 2.22382
1 -0.517824 0.246668 1.25822
1 -0.72568 -0.734582 1.04767
1 -1.70809 -0.691712 1.16048
1 -1.79652 -1.5505 1.66787
1 -0.972413 -1.0899 1.99461
1 -0.690737 -1.68197 1.34508
1 -1.20607 -1.8936 0.591491
1 -0.557596 -1.28375 0.196869
1 -1.35836 -0.776386 0.172605
1 7.98513 -6.88667 -6.49709
1 7.34117 -7.56452 -6.78032
1 7.96138 -8.05863 -7.22595
1 7.76654 -7.69016 -8.08263
1 8.47728 -8.34269 -8.0921
1 7.53919 -8.63414 -7.99646
1 6.94775 -8.51225 -7.22813
1 6.60393 -7.98184 -7.91582
1 6.57554 -7.54561 -8.76618
1 7.01936 -6.9393 -8.1618
1 -3.16817 -8.33579 4.84288
1 -2.55288 -8.68781 5.51213
1 -1.71348 -8.25725 5.80417
1 -1.35085 -8.7386 6.58394
1 -0.791826 -9.36857 7.01215
1 -0.773385 -8.52028 7.42021
1 -0.2055 -7.73358 7.07056
1 -0.109673 -8.4003 6.42198
1 -0.613566 -8.49168 5.59933
1 -0.313797 -9.373 5.46892
1 -3.74221 -8.62588 8.03272
1 -3.64154 -8.46601 8.92643
1 -4.25123 -8.3387 9.66249
1 -3.58596 -7.55426 9.59969
1 -3.22827 -7.07094 8.87243
1 -2.67966 -7.73978 8.4982
1 -2.27902 -7.48255 9.31741
1 -1.5739 -6.97214 9.72494
1 -1.19052 -7.59857 9.10969
1 -1.5914 -7.16261 8.35395
1 -9.79675 2.60787 -10.2328
1 -9.34076 1.92877 -9.76958
1 -8.92226 1.89511 10.3005
1 -8.14733 1.48696 10.2018
1 -7.85654 1.48673 9.32938
1 -8.35017 2.33462 9.29783
1 -8.63089 2.60741 8.38401
1 -8.75715 1.59358 8.47136
1 -7.98283 1.96047 7.97976
1 -7.27975 2.50361 7.68888
1 2.55765 8.38141 -5.84266
1 3.51082 8.22822 -5.87949
1 4.34755 8.41235 -5.37672
1 3.74558 8.31024 -4.59739
1 3.49595 9.04253 -5.16868
1 3.07021 9.79594 -5.57053
1 3.8616 9.50382 -5.99491
1 4.43066 8.93045 -6.52735
1 3.9788 8.12945 -6.78335
1 3.48196 7.25507 -6.54832
1 2.18828 0.717124 -7.03098
1 2.74683 1.26135 -7.54425
1 2.80202 0.294818 -7.64988
1 3.04046 0.0968687 -6.71426
1 3.08964 -0.749309 -6.19758
1 2.4536 -1.35994 -6.61197
1 1.68307 -1.89486 -6.83438
1 2.33314 -2.42323 -6.35477
1 2.74468 -2.58109 -7.17275
1 3.41345 -2.38865 -6.46972
1 1.25327 1.84643 -7.98037
1 1.75585 2.42055 -8.58487
1 2.41447 2.14323 -7.96884
1 2.62409 1.6047 -8.73263
1 2.4693 0.933264 -9.45638
1 2.85383 0.553697 -8.5858
1 1.9462 0.654278 -8.29098
1 1.34072 0.925792 -9.03579
1 0.834579 1.76456 -8.99876
1 0.224619 2.07713 -8.32672
1 5.30544 8.62675 6.108
1 5.92818 9.22994 5.72921
1 5.88415 8.65319 4.98986
1 6.31878 9.16755 4.2724
1 7.02479 9.61796 4.85179
1 6.89151 9.00699 5.48006
1 6.87752 9.86177 5.96594
1 6.65596 9.22543 6.69755
1 6.32278 8.90865 7.49422
1 7.13001 9.03916 7.96025
1 -5.59088 -10.2237 2.42549
1 -5.5494 9.79183 2.59894
1 -5.50871 9.09904 3.15884
1 -5.16887 8.90848 2.25282
1 -5.06215 8.04759 2.60588
1 -5.45212 7.28682 3.08117
1 -6.01847 7.07103 3.78605
1 -6.2113 6.20491 3.46699
1 -7.16246 6.17518 3.70145
1 -7.42653 5.66964 4.56063
1 -9.49759 1.36315 6.46101
1 -9.9951 0.625754 6.74733
1 -9.04304 0.463896 6.94128
1 -8.52905 1.1523 7.36728
1 -7.95973 0.512335 7.81785
1 -7.71844 -0.223233 7.27257
1 -7.6954 -1.09082 7.73388
1 -7.1163 -1.80551 7.76204
1 -6.61418 -1.06066 7.50926
1 -6.03057 -1.47125 8.12562
1 -9.9089 9.66511 -7.47677
1 -10.0579 8.78821 -7.56581
1 -10.0649 7.83279 -7.61338
1 -9.45131 7.16831 -7.92187
1 -8.9156 7.93248 -7.70806
1 -9.30593 8.17984 -8.5269
1 -8.39284 8.37741 -8.79752
1 -8.25341 9.00601 -9.57944
1 -8.97176 9.02617 -10.1478
1 -8.38883 9.59352 10.2514
1 10.2575 -2.42525 -1.95502
1 -9.87301 -2.30754 -1.48722
1 -9.47607 -2.23606 -2.35152
1 -8.81536 -2.5508 -1.65607
1 -8.40135 -2.82402 -2.4455
1 -9.23047 -3.27551 -2.64621
1 -8.50625 -3.55691 -3.16947
1 -8.50155 -3.51036 -4.0868
1 -8.97909 -2.78503 -3.89422
1 -9.62891 -3.42885 -3.5955
1 6.82691 7.86655 6.76061
1 5.96028 8.25599 6.85115
1 5.62779 7.35688 7.06882
1 5.79777 6.49411 6.75738
1 5.74778 5.62113 6.27728
1 6.30668 5.2496 6.91823
1 7.22264 5.26041 6.61188
1 6.92743 6.15859 6.82822
1 7.74996 6.46831 7.22583
1 8.222 6.0379 6.44733
1 -4.66161 8.34496 6.57798
1 -5.38941 8.6833 6.04562
1 -5.93982 8.1629 6.65359
1 -5.42491 7.41087 6.95502
1 -5.24249 8.1976 7.50995
1 -5.02269 7.87508 8.34213
1 -4.40968 7.16669 8.64175
1 -4.79457 6.95108 7.788
1 -4.30606 7.47907 7.1816
1 -4.31497 8.31941 7.63475
1 -8.13912 -8.34187 4.21276
1 -8.9045 -7.96017 3.78249
1 -8.31692 -7.61747 3.02575
1 -7.56699 -7.90157 3.53305
1 -7.03451 -8.1985 4.23707
1 -6.94514 -9.00495 3.76719
1 -6.13785 -9.55274 3.61597
1 -5.32428 -9.18465 3.33879
1 -4.43237 -8.87885 3.03499
1 -4.67275 -9.60917 2.45885
1 8.51845 -6.91577 -0.752571
1 8.73261 -7.31254 -1.72173
1 8.71421 -7.55313 -2.63179
1 8.36757 -7.81031 -3.47265
1 7.76586 -8.32729 -4.04133
1 6.97913 -7.82553 -4.36561
1 7.67533 -7.25377 -4.58227
1 8.48561 -7.79328 -4.6331
1 9.22225 -7.7005 -4.02939
1 9.34135 -8.6342 -4.05955
1 -0.445268 -10.338 5.49863
1 -1.27038 -10.4446 5.0104
1 -1.67622 -10.174 4.15875
1 -1.94707 9.95728 4.5013
1 -2.22398 10.3687 5.41906
1 -2.5703 -9.8195 5.91999
1 -3.30243 -9.55228 5.34391
1 -4.26341 -9.54695 5.78563
1 -5.13622 -9.48352 5.43588
1 -5.26905 -9.50122 6.37346
1 -4.22703 8.3164 1.99846
1 -3.61795 9.06107 2.09215
1 -2.63791 9.12372 2.04167
1 -2.49803 8.48841 1.33903
1 -2.39148 7.51647 1.57536
1 -1.70692 7.25494 2.15741
1 -2.46359 7.44461 2.67827
1 -2.88927 6.69232 2.20484
1 -3.53648 7.2419 2.69179
1 -3.4404 8.14546 2.7218
1 9.21156 5.19207 -9.11744
1 8.66736 5.58718 -9.85883
1 9.33985 6.26906 -9.88957
1 10.1418 6.04579 -9.47425
1 -10.0602 6.29658 -8.92606
1 -10.1912 5.4198 -8.42707
1 -9.82004 5.7654 -7.61845
1 10.3346 5.23945 -7.54151
1 9.84808 5.03566 -6.74722
1 9.50279 4.67547 -5.90823
1 -9.53912 3.63645 -5.93204
1 -9.08643 3.25286 -5.11217
1 -8.76525 3.23879 -4.19576
1 -7.85866 3.66526 -4.12805
1 -8.18878 3.25953 -3.35543
1 -8.44826 4.19606 -3.42598
1 -9.07745 4.45088 -4.08885
1 -9.57542 5.2491 -3.97011
1 -9.45555 6.24804 -3.98795
1 -9.69107 6.61096 -4.82526
1 -4.3477 -3.65664 -5.63868
1 -5.01258 -4.32438 -5.82556
1 -5.98429 -4.35044 -5.72419
1 -6.8532 -4.82147 -5.64208
1 -7.76304 -4.71934 -5.42955
1 -8.31958 -5.27102 -4.85734
1 -8.92366 -5.98793 -5.02055
1 -9.22483 -5.2669 -5.6628
1 -9.45917 -5.7052 -6.47699
1 -9.66852 -6.34876 -5.77831
1 6.56338 -2.63932 -5.96225
1 5.68345 -3.03172 -5.81585
1 6.02716 -3.14967 -6.71916
1 5.28978 -2.49986 -6.63419
1 4.61103 -2.3311 -5.99227
1 4.12191 -3.17844 -5.94154
1 3.72494 -3.4077 -5.15031
1 3.52834 -2.94084 -4.36326
1 3.33909 -2.22968 -3.81332
1 2.99461 -1.73914 -4.55957
1 -3.41414 3.07485 -5.69068
1 -4.12701 3.66078 -5.93174
1 -4.32242 3.91712 -6.80374
1 -4.74244 3.07984 -6.74944
1 -4.84142 3.53512 -7.6738
1 -4.71446 4.31304 -8.19392
1 -4.82644 3.46027 -8.63449
1 -5.13781 2.62388 -8.16986
1 -5.74783 3.09997 -7.54915
1 -6.09556 4.01203 -7.20115
1 10.3827 -5.83476 -0.83829
1 -9.57479 -5.64921 -0.763007
1 -9.22939 -6.46548 -1.08206
1 -8.36971 -6.46459 -0.695075
1 -8.26296 -5.72632 0.0360984
1 -9.05861 -6.28298 0.107338
1 -8.68446 -6.60845 0.907001
1 -8.50345 -6.31484 1.77921
1 -9.43214 -6.13342 1.48132
1 -9.78378 -7.01624 1.213
1 -2.53515 -4.11694 7.03238
1 -2.18401 -4.13246 7.83727
1 -2.85458 -4.77587 8.08403
1 -3.46012 -5.05714 7.29917
1 -2.5592 -5.18024 7.08148
1 -1.79991 -4.8092 6.58956
1 -1.32806 -4.79929 5.72119
1 -1.01354 -5.02037 4.81783
1 -0.371122 -5.49684 5.37455
1 -0.0156221 -4.66502 5.22251
1 9.18282 9.05292 2.01701
1 9.54622 8.17816 1.87818
1 10.105 8.54052 2.56571
1 -10.21 9.17745 2.25557
1 -10.176 8.25578 1.96722
1 10.3078 7.4099 1.96263
1 10.4706 7.15977 1.1083
1 10.1752 8.08398 0.988255
1 9.2191 8.13834 0.700118
1 9.48889 8.11852 -0.336664
1 -9.67365 9.79772 9.76043
1 -9.12881 10.3566 10.3154
1 -8.44473 10.2521 -9.92656
1 -8.11753 -9.85108 -10.2738
1 -7.85007 -9.03823 -9.91087
1 -7.11208 -9.6588 -9.78201
1 -7.81548 -9.75267 -9.03574
1 -7.81077 -10.0894 -8.13606
1 -7.10497 -10.206 -7.47341
1 -7.10246 9.98927 -8.0742
1 -8.18036 -5.05259 8.63492
1 -8.83524 -4.32547 8.70932
1 -9.0265 -4.97794 7.99989
1 -9.50658 -4.17417 7.82076
1 -10.1622 -4.57261 8.50007
1 -9.47651 -5.17212 8.97304
1 -9.76303 -5.86603 8.29227
1 -9.47843 -6.64938 8.80587
1 -9.94833 -6.0072 9.38783
1 10.424 -6.81469 9.45165
1 2.99516 -10.0678 2.92165
1 2.96884 -9.85816 3.89482
1 2.6636 10.4298 4.50217
1 3.48103 -10.2617 4.90106
1 3.11783 10.0274 5.46484
1 3.91929 9.73738 4.96247
1 4.77196 10.0514 4.70056
1 5.71178 9.9865 4.41164
1 6.43871 10.2095 3.7137
1 7.30445 9.85028 3.65723
1 -9.455 9.90483 -1.90396
1 -9.56558 10.4145 -2.75016
1 -9.22925 -9.96567 -2.01087
1 -8.69827 -9.54165 -1.32571
1 -9.09336 -10.2847 -0.901381
1 -9.76703 10.0093 -0.660263
1 -10.3839 -10.3983 -0.307649
1 10.1663 9.80993 0.142328
1 10.0734 9.35132 -0.664158
1 9.13802 9.13343 -1.06847
1 -1.60113 9.01826 0.902809
1 -1.77928 9.48811 0.104973
1 -2.48299 9.56207 0.751596
1 -2.74233 10.0529 1.64777
1 -1.80064 9.89152 1.41562
1 -1.77951 10.1358 2.29589
1 -1.55507 -10.1061 1.67325
1 -2.20035 -9.52074 1.21018
1 -1.78362 -8.70082 1.35417
1 -2.45596 -8.30136 1.8873
1 -1.68024 -9.25733 7.73408
1 -2.19491 -9.81722 8.36698
1 -2.91641 -9.20913 8.51902
1 -3.70383 -9.56704 9.01573
1 -3.43702 -9.27639 9.90025
1 -4.32462 -9.68343 9.81305
1 -3.89249 -10.0113 -10.2984
1 -3.38297 -9.92721 -9.51013
1 -2.70806 -9.51401 -8.98727
1 -3.59488 -9.2645 -8.7804
1 -7.01245 4.01767 -1.87064
1 -7.1991 3.06779 -2.32918
1 -8.05188 2.6391 -2.28708
1 -7.90904 2.18251 -1.38074
1 -8.71989 2.0335 -0.830995
1 -8.8296 1.97173 -1.80279
1 -9.07298 2.67196 -2.41657
1 -9.48446 1.83497 -2.64306
1 -9.8485 2.28926 -1.84841
1 10.2349 2.47074 -1.3483
1 -4.78817 -4.92249 -7.28759
1 -4.72616 -4.5196 -8.07659
1 -4.31784 -5.29737 -8.41254
1 -3.61839 -5.3545 -7.76204
1 -3.79093 -5.55413 -6.7756
1 -4.22189 -6.22173 -6.19631
1 -3.78303 -6.53462 -6.9792
1 -2.9702 -6.96608 -7.12843
1 -2.03986 -6.85276 -7.22378
1 -1.939 -6.19065 -7.99175
1 1.87019 -8.79811 0.398058
1 0.974322 -8.57905 0.768283
1 0.543261 -9.37772 0.354937
1 -0.24468 -8.84932 0.159922
1 0.0459421 -7.98916 0.346821
1 0.265679 -7.82439 -0.53335
1 -0.514373 -8.38443 -0.785217
1 -1.21558 -9.04097 -0.907097
1 -1.53843 -8.13875 -0.869461
1 -1.84037 -7.39115 -1.56058
1 -0.296331 -2.99136 -2.7286
1 0.649461 -2.82843 -2.94256
1 1.29146 -2.17398 -2.61032
1 0.423382 -1.69592 -2.66282
1 -0.119087 -1.97052 -3.38105
1 -1.01077 -1.80422 -2.95075
1 -0.838313 -0.89041 -3.21474
1 -1.58445 -0.829947 -3.7552
1 -0.830729 -0.277433 -4.0381
1 0.0050831 -0.703294 -3.94974
1 2.14168 2.48875 6.15596
1 1.73757 1.69487 5.89172
1 1.73019 1.6216 6.84194
1 2.00817 1.07647 7.54019
1 2.0107 0.420414 8.2364
1 1.81035 -0.58198 8.16223
1 1.12808 -0.292153 8.84305
1 0.630676 -0.0235243 9.65021
1 0.0626342 -0.540735 10.2649
1 0.450276 0.266583 -10.2411
1 -6.76799 -7.54002 -0.7433
1 -6.55773 -8.10451 -0.0105084
1 -7.05258 -7.44116 0.496781
1 -6.36434 -6.84364 0.616931
1 -5.62646 -6.479 1.00195
1 -4.70116 -6.16063 1.06673
1 -5.33137 -5.3158 0.989075
1 -4.9867 -5.67668 0.186555
1 -4.42572 -5.5892 -0.596136
1 -4.59377 -5.97199 -1.47447
1 4.11854 3.14973 -5.17713
1 4.88298 2.53245 -5.35995
1 4.97674 1.55942 -5.43971
1 5.22065 0.669526 -5.72552
1 6.15784 0.39603 -5.68538
1 6.40926 1.34863 -5.95036
1 7.02925 1.10003 -6.61396
1 6.72343 1.9781 -6.83675
1 6.08633 2.70031 -6.52621
1 5.8822 2.12966 -5.79554
1 -1.07392 -0.657778 -6.40051
1 -0.147887 -0.33002 -6.29061
1 0.055465 -1.26894 -6.15972
1 0.322531 -0.845516 -7.01189
1 1.27654 -0.912972 -6.7442
1 2.08816 -0.378753 -6.89663
1 2.66978 -0.781286 -7.52853
1 3.54607 -1.16863 -7.68595
1 3.8777 -0.318865 -8.07703
1 3.90104 0.675779 -8.20041
1 4.9709 -9.78013 2.03015
1 4.59548 -9.63077 1.17447
1 4.25807 -9.19837 0.330813
1 3.74098 -8.73488 -0.308715
1 3.75874 -8.25866 0.552236
1 3.66396 -8.88388 1.24826
1 2.7517 -8.73742 1.46157
1 3.18946 -9.12796 2.2155
1 4.11211 -8.9158 2.13462
1 4.95653 -8.61169 2.43901
1 3.14048 -0.689656 -0.783241
1 2.52283 0.0421482 -0.712419
1 2.17652 -0.633266 -1.2869
1 2.06465 0.176402 -1.81783
1 1.39718 0.742873 -2.23361
1 2.11185 0.925188 -2.76662
1 2.69829 0.995056 -1.9591
1 3.64593 0.94006 -2.12565
1 4.30093 0.582284 -1.53251
1 5.25486 0.56658 -1.25373
1 1.94244 -8.29421 7.16576
1 2.0495 -9.05401 6.50515
1 2.19064 -8.27122 5.97906
1 2.40612 -7.76482 5.23968
1 3.34067 -7.76001 4.78693
1 4.08666 -7.84363 5.43473
1 3.86446 -8.13625 6.30194
1 3.23218 -7.45825 6.0147
1 3.2015 -7.39647 6.98381
1 3.55188 -7.68418 7.83411
1 3.59881 2.11471 -3.06483
1 4.36708 2.59475 -2.92875
1 3.6565 3.06364 -2.4354
1 3.60359 3.36516 -3.35403
1 3.71322 4.10111 -2.78006
1 4.24962 4.04671 -1.95869
1 5.06254 3.48574 -2.03453
1 5.07762 2.57769 -1.79386
1 5.63306 1.80143 -1.51262
1 4.85848 1.33837 -1.86905
1 -0.659999 3.54413 -1.72335
1 -0.94474 4.12365 -2.39591
1 -1.69547 3.57749 -2.47629
1 -2.25723 2.91826 -2.15503
1 -2.71186 3.59654 -2.78543
1 -2.08662 3.0989 -3.33825
1 -1.54035 2.36836 -2.86067
1 -1.12306 2.66876 -2.04309
1 -0.912021 2.56924 -1.01684
1 -0.039338 2.61473 -1.46959
1 -7.40049 -4.20999 10.1293
1 -7.641 -5.03297 9.73341
1 -8.51034 -4.57129 9.63743
1 -8.25134 -4.58555 -10.3761
1 -7.62733 -5.21315 -10.1436
1 -7.24725 -5.37351 -9.29333
1 -7.96298 -4.7284 -9.07729
1 -7.61126 -3.97997 -8.57174
1 -6.70897 -3.8752 -8.17459
1 -6.83971 -3.11485 -8.85785
1 -1.26089 7.17478 9.93568
1 -0.651568 6.71324 9.33719
1 0.180967 7.06211 9.68328
1 0.533068 6.83587 8.86187
1 0.923226 7.65991 8.93986
1 1.72681 8.19854 8.7715
1 2.75055 8.29813 8.71126
1 3.13828 9.22387 8.45721
1 3.53888 9.58739 9.25551
1 4.18067 9.23357 9.94423
1 10.0596 -8.14736 -9.5515
1 10.3706 -8.05832 -8.63863
1 9.78491 -8.69744 -8.33303
1 9.25039 -9.48034 -8.56209
1 10.1415 -9.72382 -8.34085
1 9.73306 -9.59244 -7.49934
1 10.1503 -10.3848 -7.15725
1 -10.2527 10.0315 -6.59694
1 -9.62774 -10.3414 -7.09354
1 -10.1036 -9.89314 -6.39066
1 -9.28851 -0.391213 8.6248
1 -8.67916 -0.395511 7.85335
1 -9.01186 -1.27685 7.77082
1 -9.81257 -0.740405 7.66907
1 -10.3703 -0.656846 8.39891
1 10.0237 -1.11196 9.03955
1 9.26933 -0.713984 9.52939
1 8.85671 -0.494362 8.73141
1 9.44321 -0.704464 8.0357
1 8.68213 -1.36609 8.07433
1 -2.725 -5.38887 -1.39909
1 -2.19208 -4.85547 -2.06009
1 -1.23809 -4.93944 -2.32023
1 -1.10112 -3.98916 -2.37307
1 -1.13111 -3.36744 -3.10228
1 -0.971493 -2.58381 -3.61065
1 -0.881065 -1.71617 -4.0975
1 -1.35521 -1.0299 -4.68551
1 -0.498708 -1.41295 -5.03021
1 0.316464 -0.934531 -5.21527
1 8.60393 9.01168 -6.08445
1 7.66396 9.26203 -6.07136
1 7.16429 9.40281 -5.30478
1 7.53683 8.55717 -5.09633
1 8.10533 8.52423 -4.38655
1 7.83139 7.66291 -4.602
1 7.79718 6.75701 -4.25816
1 7.15233 7.00646 -4.92942
1 6.42133 7.54524 -5.30466
1 6.23275 7.52611 -6.24121
1 -7.67549 7.21666 -1.58054
1 -6.80254 7.40545 -1.13842
1 -6.47014 6.6011 -1.52911
1 -6.3857 7.10262 -2.30196
1 -7.23689 7.15258 -2.75111
1 -7.35732 6.40833 -2.11206
1 -7.78143 5.65544 -1.71816
1 -8.32294 5.57926 -0.962184
1 -8.69971 4.96079 -1.62746
1 -7.83717 4.63077 -1.82315
1 4.50868 6.55637 -5.68387
1 5.07944 7.1561 -5.2237
1 5.67788 6.97783 -4.38655
1 6.43373 6.4312 -4.27143
1 5.92971 5.61658 -4.26987
1 5.50448 6.25733 -3.7475
1 5.8688 5.9805 -2.88282
1 4.96362 6.08029 -2.65497
1 4.05711 6.27749 -2.3373
1 3.24509 6.19454 -2.83335
1 0.628262 0.507829 -0.0954941
1 0.704066 0.428528 0.871029
1 0.183794 1.27005 0.896426
1 0.812024 1.60748 1.54824
1 -0.0943977 1.27852 1.86093
1 -0.880636 1.27669 2.41021
1 -0.446148 1.36227 3.29594
1 0.015042 2.09095 2.97133
1 -0.79981 2.44938 3.43011
1 -0.972723 3.32066 3.60663
1 4.53384 5.00669 -8.93132
1 4.91389 4.15989 -8.61172
1 5.61379 3.37673 -8.63441
1 5.86689 3.72904 -9.539
1 5.46467 4.54985 -9.61567
1 6.27462 4.98208 -9.62589
1 6.07147 4.71796 10.4172
1 5.75218 4.99712 9.55537
1 5.55516 5.95907 9.6145
1 5.39901 6.9371 9.52876
1 -0.344059 4.93833 5.95234
1 -1.10422 4.84918 6.55606
1 -1.77501 5.50201 6.8013
1 -1.41982 6.28472 7.08629
1 -2.35377 6.41621 7.40017
1 -1.94574 6.6409 8.26545
1 -1.84942 6.82351 9.17497
1 -2.28633 7.6575 9.39497
1 -1.92163 8.04271 8.64714
1 -2.44869 7.52786 7.98757
1 1.78122 -8.27889 -4.76716
1 2.12082 -8.13517 -3.92553
1 2.43147 -8.99298 -4.22101
1 3.14807 -9.59241 -4.44571
1 3.50345 10.4492 -4.41012
1 4.42638 -10.4579 -4.08806
1 4.81339 -9.96792 -4.80536
1 3.95632 -9.6499 -5.09288
1 3.15882 -9.86486 -5.46711
1 3.59357 -9.82758 -6.29983
1 6.84898 -5.27948 -1.89692
1 7.07456 -5.86556 -1.17819
1 6.7844 -5.84408 -0.306941
1 7.18005 -6.65812 -0.435155
1 6.47308 -6.91426 0.213651
1 6.42158 -7.22708 1.13067
1 6.33545 -7.95957 0.604158
1 5.41038 -7.9162 0.877628
1 4.69443 -8.39036 1.37892
1 5.38484 -9.0391 1.37362
1 -5.74042 4.02428 -9.65575
1 -4.94012 4.51185 -9.64958
1 -4.00856 4.78874 -9.84816
1 -4.14119 5.46901 -10.4394
1 -3.87893 6.31308 10.2353
1 -3.02427 5.8958 10.1626
1 -2.46429 5.39718 -10.1533
1 -3.25391 5.72542 -9.73571
1 -3.64159 6.39566 -9.19046
1 -4.00503 5.56166 -8.97493
1 -5.73575 9.24207 -8.85535
1 -6.12688 8.80234 -9.51807
1 -6.83985 9.44974 -9.22682
1 -7.65007 9.92691 -9.2934
1 -8.05574 9.54373 -8.53899
1 -8.56948 9.97813 -7.83173
1 -8.8921 -10.0419 -7.96978
1 -8.31254 -9.98356 -7.23977
1 -7.92153 -10.1242 -6.34235
1 -7.55486 -9.38578 -6.84879
1 -6.07051 -7.69732 -2.04042
1 -6.64205 -6.87371 -2.20723
1 -7.16912 -6.15445 -2.43572
1 -6.68539 -6.10993 -1.61249
1 -6.26372 -5.22131 -1.74102
1 -6.76608 -5.05662 -0.908345
1 -6.20441 -5.81252 -0.726763
1 -5.44099 -5.21433 -0.917563
1 -5.78773 -4.46022 -0.480859
1 -4.91258 -4.60837 0.000176532
1 -8.49632 8.00264 8.17798
1 -8.56152 7.09626 8.23123
1 -7.88625 7.48371 8.7708
1 -7.2954 7.15955 9.4637
1 -8.1339 6.70303 9.44891
1 -9.01411 7.13069 9.34929
1 -9.49917 7.88506 8.87813
1 -10.3687 8.34902 8.83701
1 -10.2909 7.59151 9.38425
1 -10.2411 6.74206 8.9322
1 -4.99017 -0.897939 -2.77293
1 -4.72569 -0.505411 -1.96769
1 -4.09111 0.144972 -2.32144
1 -3.78979 1.05546 -2.52556
1 -3.98341 1.10951 -3.43333
1 -3.37375 1.57264 -4.01247
1 -2.4675 1.71341 -4.28316
1 -3.12025 2.31647 -4.61508
1 -2.59936 3.02565 -4.92316
1 -3.3711 3.54607 -4.77893
1 -4.37968 -5.58972 -4.76206
1 -3.39617 -5.48959 -4.64845
1 -2.99134 -6.40731 -4.89119
1 -3.86962 -6.41356 -5.21467
1 -3.22671 -5.95968 -5.82503
1 -3.05288 -6.84802 -5.98722
1 -3.97745 -7.15127 -6.0016
1 -4.61373 -7.89319 -5.87515
1 -4.49891 -7.25025 -5.14272
1 -3.66205 -7.61831 -5.10316
1 6.59046 2.20277 -4.88384
1 6.3647 1.3392 -4.5493
1 7.31522 1.24202 -4.62292
1 7.14591 0.850247 -5.44555
1 8.05595 0.706835 -5.79384
1 8.79216 1.20536 -6.06507
1 8.90095 0.357089 -6.53235
1 9.72218 -0.115591 -6.1687
1 10.2323 0.304444 -5.42941
1 9.73332 0.324703 -4.5567
1 9.79543 -2.54361 10.1333
1 10.0405 -2.51235 9.17152
1 10.4561 -2.50675 8.2623
1 -9.96362 -1.88322 7.66588
1 -9.52895 -2.54955 7.13122
1 -8.5304 -2.68217 7.15522
1 -8.24075 -2.18718 7.89526
1 -7.58596 -2.7849 8.20492
1 -6.684 -2.52367 8.53808
1 -6.52168 -3.42958 8.72735
1 1.83373 5.42206 -3.9317
1 1.43836 6.1826 -4.39026
1 1.29585 6.50836 -5.26095
1 1.85948 7.35318 -5.33384
1 2.26904 7.42457 -6.16663
1 2.91466 6.83133 -5.70558
1 2.73625 6.80539 -4.77061
1 3.13204 6.3473 -4.0882
1 3.18214 7.05132 -3.45377