8000
Atoms. Timestep: 0
1 -4.08866 9.638 3.86458
1 -4.15756 9.52556 4.81462
1 -4.77834 10.1902 5.11011
1 -4.97488 10.3022 6.02403
1 -4.23735 10.4411 6.53291
1 -4.6439 9.68945 6.94147
1 -5.38346 9.31014 7.34817
1 -5.36826 9.23673 8.31793
1 -4.75576 9.38897 9.04046
1 -4.67557 10.2246 9.51431
1 -1.83214 5.7722 9.6315
1 -1.96494 5.76429 8.65428
1 -1.04789 5.38539 8.69559
1 -1.06794 6.28796 9.04258
1 -0.938518 7.28586 9.27432
1 -0.623048 7.63835 10.1317
1 -0.285784 8.15796 -9.97959
1 -0.644059 9.04548 -10.0425
1 -0.115773 8.883 -9.28119
1 0.0709138 9.71803 -9.63729
1 2.24634 -5.30188 8.58174
1 3.08873 -5.04182 8.24451
1 3.2619 -5.25314 9.12024
1 2.64917 -5.55033 9.81145
1 2.78571 -4.65974 9.99929
1 1.86045 -4.70796 10.0198
1 1.93466 -5.30424 -10.1351
1 2.39915 -5.48488 -9.22446
1 1.76741 -6.18679 -9.1338
1 1.20046 -5.44452 -9.41371
1 -4.21532 -7.74126 -6.65089
1 -5.00008 -7.29485 -6.35052
1 -5.03062 -7.90533 -5.5768
1 -5.61395 -7.98564 -4.85802
1 -6.57502 -8.30364 -4.64543
1 -6.45346 -7.83828 -3.80549
1 -5.95873 -7.1163 -4.16316
1 -5.1745 -7.38475 -3.67069
1 -4.5569 -8.13835 -3.44822
1 -5.39734 -8.30736 -3.91359
1 9.88327 -10.2054 -0.171994
1 10.2331 10.3257 -1.04309
1 9.66294 9.89597 -1.73742
1 10.0224 10.3426 -2.4863
1 9.47708 -10.0842 -3.12947
1 9.70797 -9.36404 -3.759
1 10.2743 -10.1318 -3.79448
1 10.01 -9.96244 -4.71841
1 -9.98958 -9.66602 -4.52339
1 -9.36927 -9.2635 -5.10619
1 7.50489 8.28338 -9.91005
1 6.62107 8.03197 -9.91701
1 7.13801 7.64184 10.2767
1 6.58126 6.85693 10.4431
1 7.28645 7.01632 -9.84552
1 7.99391 6.70531 -10.4296
1 8.65778 6.00512 -10.3793
1 9.02868 5.8585 -9.51005
1 9.61519 6.4054 -10.153
1 9.95089 6.33642 -9.19768
1 2.29217 2.82614 -2.93055
1 2.70068 2.88248 -3.78431
1 2.94374 1.94108 -3.6985
1 3.47325 1.40736 -3.12414
1 3.38333 1.11964 -2.16684
1 3.05964 1.50433 -1.38342
1 3.8045 2.01692 -1.47774
1 3.24329 2.20053 -2.20767
1 3.63335 2.5239 -3.08739
1 3.91036 2.39615 -3.94516
1 1.08928 1.4008 4.1108
1 0.760692 1.66251 3.2599
1 0.36461 0.789974 3.35883
1 -0.443769 0.327852 3.62769
1 0.195547 -0.413606 3.57295
1 -0.699835 -0.671708 3.26525
1 -1.65368 -0.41297 3.26012
1 -2.01937 -0.908663 2.43864
1 -1.75623 -1.47846 3.26085
1 -2.19626 -1.65811 4.14427
1 -1.93637 -8.52809 -8.19287
1 -2.05089 -7.70312 -7.74264
1 -2.92579 -7.34892 -8.07294
1 -3.79485 -7.10703 -8.25031
1 -3.78939 -6.19109 -8.51565
1 -3.06303 -6.50621 -9.14553
1 -2.40611 -5.85234 -9.42728
1 -1.54819 -5.74508 -9.90638
1 -0.84485 -6.26139 -10.2843
1 -1.38361 -6.76392 9.99993
1 -1.06388 -1.90168 3.88611
1 -1.12712 -2.57378 4.65709
1 -1.94905 -2.49989 5.12774
1 -1.24578 -2.33517 5.80428
1 -1.07186 -3.22042 5.54846
1 -1.31406 -4.21728 5.5393
1 -1.97724 -4.79399 5.86794
1 -2.51336 -4.01233 5.7457
1 -1.93961 -3.59289 5.07162
1 -1.53169 -4.01638 4.34726
1 -1.10838 -7.32832 2.05908
1 -1.07927 -7.77507 2.89297
1 -1.84073 -8.1101 2.3352
1 -1.97898 -7.17712 2.65466
1 -1.93883 -7.21076 3.61253
1 -2.7371 -7.79874 3.43437
1 -3.20947 -8.17883 2.7444
1 -2.73724 -8.8616 3.17076
1 -2.12203 -9.12086 2.49273
1 -1.36825 -8.94399 3.0326
1 10.4076 -2.46927 6.87642
1 10.2261 -2.25926 7.82507
1 10.1454 -3.24093 7.91501
1 -10.425 -3.62372 7.10091
1 -10.1896 -4.51482 6.72161
1 -9.60593 -5.15539 6.26961
1 -9.53221 -4.38257 5.71046
1 -8.89464 -4.01734 6.33253
1 -9.41276 -3.74279 7.08895
1 -9.59549 -3.00067 6.50022
1 0.684876 9.51072 10.4289
1 1.59594 9.64938 -10.1865
1 1.48122 10.0064 -9.30725
1 2.494 9.67072 -9.26674
1 2.39679 -10.3286 -9.05684
1 1.87348 -10.1514 -9.8519
1 2.25495 -9.32209 -9.5618
1 3.16023 -9.3578 -10.0019
1 3.88176 -9.57715 10.2923
1 4.35461 -9.07743 -9.96067
1 -1.1959 6.89199 -3.49391
1 -1.60973 7.67787 -3.74883
1 -1.22702 7.82444 -4.67939
1 -1.19225 7.30611 -5.43282
1 -0.310627 6.87773 -5.70966
1 0.539174 7.41878 -5.72256
1 0.0462706 8.23608 -5.7601
1 -0.35051 8.34177 -4.89103
1 0.367577 8.96903 -4.79641
1 0.8301 8.1324 -4.79663
1 -6.49563 4.58763 -9.54375
1 -6.02916 3.75761 -9.61019
1 -5.96575 3.77469 10.3665
1 -6.35869 4.10882 9.62068
1 -7.0982 4.78686 9.82471
1 -6.92115 4.22467 -10.3762
1 -7.37693 4.00214 -9.51287
1 -7.9687 4.24301 -10.2632
1 -8.75625 4.29634 10.1183
1 -8.43786 3.78215 9.38878
1 -2.15544 10.2431 10.1781
1 -2.00942 9.36686 -10.3888
1 -2.93408 9.68736 -10.1511
1 -3.1648 8.80214 -9.83044
1 -3.89067 8.5693 -10.4122
1 -4.24784 9.42665 10.2654
1 -4.70612 8.66472 9.87791
1 -5.12434 7.8234 10.0076
1 -5.71611 7.39837 -10.2711
1 -6.08011 6.60636 10.339
1 -7.18748 9.02386 6.19535
1 -6.72389 9.31374 6.97127
1 -6.39032 10.2116 6.97866
1 -5.7305 9.66604 6.51726
1 -5.30657 10.4421 6.90056
1 -5.70172 10.3845 7.786
1 -5.34819 -10.2013 8.61208
1 -5.69057 9.96738 9.13525
1 -5.65213 9.57833 10.0615
1 -5.51713 8.93465 -10.1488
1 1.29582 1.59104 2.3722
1 1.32384 1.56012 1.39376
1 0.393561 1.8354 1.53926
1 0.499893 2.61628 2.08953
1 0.957217 3.23299 2.6353
1 0.202601 3.06981 3.29985
1 -0.515935 2.74292 3.73619
1 -0.451447 3.72303 3.72451
1 0.26855 4.1843 4.01503
1 0.413779 4.97731 4.53592
1 -7.12535 -5.70848 -8.81212
1 -7.82441 -5.89245 -9.45769
1 -6.98312 -5.57475 -9.78865
1 -7.09608 -5.33269 10.2311
1 -6.9797 -6.15878 9.65699
1 -7.10467 -7.0437 10.0606
1 -7.93489 -7.29141 9.6407
1 -8.40163 -8.09447 9.35651
1 -8.31741 -7.89332 8.36119
1 -7.71832 -7.12049 8.55393
1 1.64391 0.281916 -4.43936
1 2.57958 0.0102491 -4.22634
1 2.10759 -0.372063 -5.01481
1 2.85513 -0.91938 -5.47738
1 1.97779 -0.834986 -5.97324
1 2.52918 -1.3835 -6.46472
1 2.12783 -1.57229 -7.32057
1 1.95787 -0.693197 -7.04376
1 1.07566 -0.400308 -7.12524
1 1.68589 0.331435 -7.22246
1 9.8553 -9.88933 2.04454
1 -10.3509 -9.16058 1.91302
1 -9.43233 -8.95691 1.70923
1 -9.42317 -9.93674 1.76318
1 -10.1997 -10.3395 2.19926
1 -10.3838 10.1895 3.08238
1 -9.8657 9.40942 3.35816
1 -9.28068 8.66695 3.04817
1 -8.85418 8.63183 2.16447
1 -9.19392 8.74775 1.17832
1 -7.28192 -7.74701 -9.16322
1 -7.52333 -7.08195 -9.82312
1 -8.30727 -7.09245 -10.3198
1 -7.80938 -6.24401 10.4493
1 -8.63233 -6.1782 10.0367
1 -8.42284 -5.51234 -10.2937
1 -7.7603 -4.87436 -10.0629
1 -7.82093 -4.73321 -9.06714
1 -8.7521 -4.67923 -9.26242
1 -8.74783 -4.3231 -8.33953
1 -9.30674 8.23245 -8.09079
1 -9.28906 7.79832 -8.95576
1 -8.77621 6.99454 -8.72843
1 -9.18153 6.19208 -8.32759
1 -9.44389 5.71806 -7.45534
1 -9.31674 4.77417 -7.48175
1 -8.75812 5.01113 -6.78668
1 -7.91618 4.66616 -6.6395
1 -8.25848 4.32628 -7.49035
1 -8.62315 3.76837 -6.84209
1 -7.09184 6.40469 8.24846
1 -6.59702 5.66479 8.6691
1 -7.39582 5.42266 8.1845
1 -7.21609 4.53085 8.29072
1 -6.33478 4.7166 8.14704
1 -6.28921 3.75743 8.28346
1 -6.46251 4.08603 7.3939
1 -5.99621 3.77931 6.57841
1 -6.81897 3.28078 6.58729
1 -7.55313 2.75987 6.93081
1 5.42424 2.75231 4.91376
1 5.39206 3.20158 5.79559
1 5.99653 3.85777 5.96647
1 5.23422 3.8912 6.47496
1 5.58966 4.41846 7.13067
1 5.10175 5.05616 6.6377
1 5.9903 5.30624 6.56439
1 6.57016 4.95945 7.20581
1 6.75337 5.32542 8.06108
1 7.63779 4.8918 7.84269
1 9.63312 8.16773 7.48988
1 9.34355 9.03731 7.22503
1 9.32707 9.2005 6.27526
1 8.4738 9.30252 6.68492
1 8.49163 10.2515 6.74406
1 9.02083 -10.143 6.12585
1 9.57877 10.2504 6.73689
1 9.8698 10.0809 7.6589
1 9.69892 10.3442 8.51419
1 9.07124 10.3992 9.25538
1 2.56347 9.9243 -2.88753
1 2.98382 9.60011 -2.0978
1 3.14133 9.86109 -1.13425
1 3.96884 10.2164 -0.699667
1 4.36555 10.1884 0.176574
1 4.19969 10.3264 1.12716
1 4.35368 10.3855 2.11115
1 4.35619 -9.93759 2.91381
1 5.24989 -10.2401 2.69131
1 6.00701 10.1267 3.1731
1 0.65886 6.50174 -3.77648
1 1.16127 5.75125 -3.39879
1 0.509505 5.61437 -2.62519
1 0.023909 5.52244 -3.4604
1 -0.613017 4.96864 -3.03116
1 -0.256673 5.0789 -2.10328
1 -0.848978 5.78345 -2.27119
1 -0.98323 6.43081 -1.54312
1 -1.34932 6.86617 -2.31249
1 -1.29677 7.59714 -1.69885
1 -6.71347 -4.04573 -9.24224
1 -7.36525 -3.66207 -8.75163
1 -7.32277 -3.13237 -7.96578
1 -7.4267 -3.18076 -7.00963
1 -8.13921 -3.40119 -6.37367
1 -7.87876 -4.23349 -6.9207
1 -7.97298 -5.12175 -6.54844
1 -8.33087 -4.47227 -5.88553
1 -7.48211 -4.04275 -5.94938
1 -7.19183 -4.84903 -5.57787
1 10.0848 -9.72441 -6.72437
1 -10.1472 -10.3544 -6.53913
1 -9.23706 10.2941 -6.43322
1 -9.76338 9.50535 -6.39467
1 -9.69502 9.88707 -5.54936
1 -9.53527 8.98681 -5.17486
1 -9.18235 8.08465 -5.09022
1 -8.82447 8.37206 -5.97127
1 -8.79198 9.36781 -5.99079
1 -8.92146 8.83383 -6.84355
1 5.89043 1.91044 6.02611
1 4.91548 2.13717 5.82008
1 4.56395 1.20706 5.66498
1 5.1649 1.03076 6.39541
1 4.29299 0.517413 6.39078
1 4.51862 0.56988 7.32727
1 3.96476 -0.112664 7.65276
1 3.92561 -0.542091 6.82993
1 4.13685 -0.928919 5.94581
1 3.2 -0.841256 5.92222
1 5.80107 -1.40273 9.74732
1 5.89315 -1.42044 -10.2333
1 6.55255 -0.874847 -9.91223
1 6.27761 0.021462 -9.82262
1 5.99814 0.676215 -9.17124
1 5.32512 0.161611 -8.75053
1 6.16987 0.176004 -8.309
1 6.74806 -0.360929 -8.8294
1 7.07639 -0.233327 -7.95237
1 6.86124 -1.12778 -8.21142
1 -2.96517 -7.92274 -2.21553
1 -2.85539 -7.13144 -1.68044
1 -2.64879 -7.60371 -0.896272
1 -2.14984 -8.34921 -1.33311
1 -1.26403 -8.75586 -1.64077
1 -0.250977 -8.71639 -1.55408
1 -0.618675 -8.96211 -0.681075
1 -0.297376 -9.7751 -1.11295
1 0.450428 -9.59436 -1.6173
1 0.687628 -8.73426 -2.02089
1 4.45866 -7.58762 -9.97597
1 4.17842 -8.19569 10.2729
1 5.11263 -8.37335 10.1284
1 4.95098 -9.31178 9.95699
1 4.85921 -10.0134 -10.3333
1 4.10556 -10.1229 -9.74762
1 3.48714 10.0544 -9.86507
1 2.62373 10.1312 -10.1547
1 3.125 9.99351 9.98075
1 4.01061 10.3608 9.96355
1 -3.83214 -5.70986 -7.55706
1 -3.05223 -5.97033 -7.06465
1 -2.37716 -5.3783 -7.42462
1 -1.58467 -5.01491 -7.00628
1 -0.732455 -5.12323 -6.54828
1 -0.580685 -4.75299 -7.40482
1 0.324013 -4.29793 -7.3964
1 0.803863 -4.7004 -8.12994
1 1.44203 -4.36261 -7.39377
1 1.05005 -3.74862 -8.05681
1 -2.56583 -5.76897 -0.222833
1 -2.60664 -6.34543 -0.997047
1 -1.96632 -5.61675 -1.04096
1 -2.05763 -4.70225 -1.28993
1 -1.79884 -5.3288 -2.00587
1 -1.2312 -6.02909 -2.38564
1 -1.09114 -6.4492 -3.28804
1 -0.305636 -5.99137 -3.67175
1 -0.0307769 -5.04914 -3.53717
1 0.127119 -4.70919 -4.43298
1 6.3843 1.09324 -6.4965
1 5.8975 1.50401 -5.77791
1 5.19776 2.01068 -5.25744
1 5.04882 1.47397 -4.44212
1 5.42862 0.737313 -4.85997
1 4.73527 0.0794672 -4.72052
1 4.52734 -0.196645 -3.81689
1 4.28884 -0.851454 -4.51693
1 3.73312 -0.107538 -4.75937
1 3.81367 0.52392 -4.05607
1 0.408376 -4.20159 6.96254
1 0.595654 -3.37293 7.44078
1 0.938556 -3.05033 6.56331
1 1.807 -3.25232 6.94778
1 1.47416 -4.14218 6.85159
1 1.16824 -4.77769 6.1276
1 0.774084 -5.47782 5.70012
1 0.141076 -5.28155 5.02809
1 0.965312 -4.86721 4.65311
1 0.324381 -4.94598 3.93113
1 -7.57252 -10.1209 -8.68091
1 -7.21945 -9.19678 -8.85534
1 -6.68378 -8.761 -8.09652
1 -7.01822 -7.9185 -7.78791
1 -7.35075 -7.23756 -7.22552
1 -7.14052 -6.38795 -7.76343
1 -6.76324 -6.83338 -8.56798
1 -5.94516 -7.15686 -8.13514
1 -6.37407 -7.87215 -8.5657
1 -6.14809 -7.27513 -9.3044
1 -6.68249 2.1254 -1.25735
1 -6.29165 1.8538 -2.15149
1 -6.62345 1.76491 -3.04769
1 -6.26072 1.00022 -3.34974
1 -5.25167 0.73833 -3.57336
1 -4.81866 -0.0225513 -4.01811
1 -4.67383 -0.305708 -3.11243
1 -5.4108 0.108439 -2.74372
1 -5.80471 -0.533614 -2.11096
1 -4.85953 -0.199924 -1.94203
1 1.74397 -7.33968 8.69288
1 1.57708 -7.71638 9.54504
1 1.01429 -6.92303 9.34252
1 0.679263 -6.7798 8.41912
1 0.526332 -6.00629 8.00573
1 -0.120967 -6.20955 7.31102
1 0.33116 -7.09313 7.54849
1 1.05148 -6.74649 7.05429
1 0.949315 -6.64985 6.11667
1 1.85085 -6.32838 5.83218
1 -4.23044 1.17537 -8.17543
1 -3.63148 1.91572 -8.0662
1 -3.51559 2.29503 -8.93979
1 -2.59929 2.63048 -9.17526
1 -3.2481 3.3254 -8.88043
1 -2.46338 3.68637 -9.33309
1 -1.80484 4.17978 -8.91552
1 -1.45015 5.02094 -9.45846
1 -0.999264 4.39426 -9.96622
1 -1.4476 3.57438 -9.76344
1 -2.83481 -6.83151 8.1631
1 -2.74008 -5.94224 7.81696
1 -2.36103 -6.59183 7.26084
1 -2.22982 -6.25402 6.38294
1 -3.04454 -6.06376 5.97471
1 -3.01394 -5.75063 6.84965
1 -2.14412 -5.40679 6.98012
1 -2.30432 -4.4336 6.9151
1 -2.04681 -3.67227 7.41248
1 -1.65922 -3.6121 6.49237
1 -6.59666 1.72488 2.9672
1 -7.4036 1.95862 2.5402
1 -7.2404 2.16124 1.64134
1 -6.39143 2.12984 1.06246
1 -6.06145 1.57218 1.85069
1 -5.24657 1.1741 2.30295
1 -5.65019 0.528244 1.78625
1 -5.39995 0.136477 2.63564
1 -6.15742 -0.36193 2.76519
1 -6.38807 0.516022 2.94314
1 9.33552 7.13826 -4.6247
1 10.0702 6.43053 -4.57189
1 9.33898 5.93307 -4.87978
1 9.12739 5.09107 -5.1771
1 9.98194 4.70603 -5.24959
1 -10.2962 5.42752 -5.15689
1 -9.42728 5.21769 -4.80559
1 -9.332 6.14785 -4.66688
1 -9.03232 6.22377 -5.5454
1 -8.29715 6.19367 -6.2102
1 4.76306 -8.00919 -6.79515
1 4.02384 -7.39589 -6.79073
1 3.52224 -6.61697 -6.45737
1 3.62857 -5.67484 -6.74173
1 3.40316 -4.89659 -7.22258
1 3.89354 -4.04849 -7.45825
1 3.50951 -3.82122 -8.35878
1 3.13375 -3.39843 -7.62054
1 2.67095 -2.61693 -7.91285
1 2.38383 -3.39468 -8.31792
1 7.87598 -10.1523 8.63677
1 8.50611 -9.57427 9.04053
1 9.10271 -9.33228 8.36805
1 9.17023 -8.69406 9.11939
1 9.61894 -9.53465 9.37169
1 8.97606 -9.64383 9.97794
1 8.44036 -8.92986 10.0306
1 8.2403 -8.06079 9.71404
1 8.50578 -7.30728 9.09384
1 9.19204 -7.19231 9.81688
1 -9.45203 6.41383 5.68597
1 -9.24536 6.15221 6.54543
1 -9.15719 5.35186 7.08068
1 -8.2502 5.0754 7.14934
1 -8.42423 4.45056 6.41627
1 -8.01788 3.53516 6.30964
1 -8.47244 2.73682 6.02631
1 -9.39863 3.03399 5.94506
1 -9.66842 3.69205 6.54898
1 -9.18203 3.95613 7.28857
1 3.30826 8.78208 -6.17312
1 3.73492 9.4363 -5.64638
1 3.12343 10.1261 -5.20343
1 3.05434 9.94084 -6.12495
1 2.86404 9.45277 -6.95807
1 3.111 8.57603 -7.39023
1 2.82569 7.67533 -7.32335
1 3.49427 7.43076 -7.96437
1 2.65934 7.78352 -8.40993
1 2.79321 8.66043 -8.80056
1 2.65882 3.4513 -1.05198
1 3.16751 3.1017 -1.79926
1 3.11757 3.34455 -2.70812
1 2.68512 3.93054 -3.36861
1 1.82816 4.01045 -3.02136
1 1.217 4.72273 -2.63185
1 2.11858 4.66251 -2.14825
1 1.63247 4.47027 -1.35355
1 1.64133 3.54563 -1.2043
1 2.18993 3.57806 -1.9785
1 9.1987 -5.85877 -4.78045
1 8.48417 -6.48483 -4.74692
1 8.30132 -6.37925 -3.84565
1 8.78406 -7.07229 -3.29537
1 8.2966 -7.39189 -4.09511
1 8.86867 -8.04677 -3.63619
1 8.98779 -8.81763 -4.258
1 8.95536 -9.11346 -5.19154
1 9.42917 -8.75649 -5.9914
1 9.91024 -8.49818 -6.84173
1 -10.0458 4.528 0.945863
1 -9.20339 4.72288 0.531136
1 -10.0405 4.87246 0.0457868
1 10.0538 5.47356 -0.119248
1 9.54445 6.26563 -0.145661
1 8.94099 5.65284 0.32375
1 9.10133 4.80056 0.64708
1 9.10577 5.20542 1.55874
1 10.0249 5.28429 1.19791
1 10.3911 4.79798 1.99052
1 -6.03488 -6.86607 5.9352
1 -6.45196 -7.316 5.19215
1 -6.06544 -6.59815 4.68563
1 -5.50181 -6.10274 3.92871
1 -4.82538 -5.69491 3.45101
1 -4.12288 -5.93068 2.92922
1 -4.0578 -5.32285 2.15524
1 -3.85264 -4.47571 2.53457
1 -4.85708 -4.41438 2.42509
1 -4.53672 -4.4947 1.55116
1 8.96621 -6.21968 -9.86102
1 9.74731 -6.28297 -10.4236
1 9.01332 -6.14752 9.87016
1 9.51468 -5.98291 9.03039
1 8.77361 -5.38361 8.77995
1 8.21315 -5.4548 9.52248
1 8.25025 -6.37178 9.18612
1 7.43694 -6.74079 8.87344
1 7.47706 -7.60205 9.1965
1 6.59929 -7.24124 9.36681
1 -0.327124 -6.69458 1.57309
1 0.00456959 -6.60424 0.675116
1 0.37803 -5.73889 0.388271
1 -0.14364 -5.1972 0.966661
1 -0.748336 -5.96149 0.938593
1 -0.691766 -5.41217 0.177613
1 -1.37922 -5.93848 -0.068569
1 -1.94987 -6.50273 0.44997
1 -2.67174 -6.98493 0.10538
1 -3.31152 -6.92048 -0.633207
1 -3.77856 -8.74264 7.0148
1 -4.66564 -9.20721 6.99081
1 -5.50144 -9.57732 7.33793
1 -5.44372 -8.59393 7.35957
1 -5.30414 -7.6618 7.57935
1 -4.83684 -6.96091 7.27365
1 -5.09424 -7.51149 6.5031
1 -4.25402 -8.0794 6.3807
1 -4.60705 -7.82505 5.5039
1 -4.86367 -8.67851 5.35222
1 8.76142 5.66033 3.83073
1 8.71782 6.34152 4.53532
1 8.11459 6.74094 3.90535
1 7.28174 6.4849 4.34887
1 6.98356 7.20704 4.87053
1 6.10977 7.54931 5.03046
1 5.54963 6.7513 4.99878
1 6.26045 6.08324 4.8734
1 6.09515 5.39264 4.20532
1 6.8025 5.88868 3.61754
1 6.99453 7.05096 5.88389
1 7.5759 7.73393 6.18997
1 6.72626 8.0066 5.89842
1 5.72641 8.07665 5.87619
1 5.17837 8.48565 6.6097
1 5.87706 8.41115 7.2485
1 6.35939 7.89677 7.86765
1 6.4231 8.79801 8.14782
1 7.31989 8.55594 8.11453
1 7.42364 7.66233 7.78442
1 9.71693 -7.2237 2.44508
1 8.67036 -7.37109 2.31102
1 8.37689 -7.37548 1.32982
1 8.9761 -6.77169 0.811518
1 9.23404 -7.66828 0.746813
1 9.91949 -7.23468 1.34854
1 -10.4058 -7.49922 0.575946
1 10.3587 -8.28809 1.10386
1 10.2314 -8.10389 1.96983
1 10.0433 -8.51895 2.79002
1 8.63359 -4.69729 -4.88564
1 8.45346 -5.22059 -4.11227
1 8.13068 -5.31985 -3.21711
1 7.92153 -4.99526 -2.39442
1 7.31176 -5.55387 -1.83991
1 7.81881 -5.13204 -1.17918
1 8.03553 -5.35801 -0.272656
1 9.00458 -5.2418 -0.304204
1 8.739 -6.18105 -0.139184
1 9.46258 -5.92465 -0.84721
1 1.24542 -6.96681 -7.09317
1 2.04094 -6.52585 -7.39732
1 2.53442 -5.83516 -7.8046
1 2.41635 -5.40621 -6.97497
1 2.49763 -6.18739 -6.45458
1 2.74167 -6.73235 -5.73811
1 2.23986 -7.18833 -6.44519
1 1.87805 -8.00068 -6.78547
1 1.62255 -8.96377 -6.68769
1 2.55445 -8.76191 -6.48548
1 -4.33464 -8.23827 -8.73962
1 -4.37792 -8.9954 -9.37983
1 -4.55413 -9.93276 -9.07236
1 -5.33459 -9.96322 -8.56785
1 -5.48554 9.96058 -8.32194
1 -6.21522 10.1123 -7.77272
1 -7.12541 10.267 -7.79587
1 -7.1118 9.79995 -8.69515
1 -6.40605 -10.4483 -8.7251
1 -6.59325 -9.78353 -8.01001
1 4.57661 -3.97617 -0.62165
1 4.20164 -3.11793 -0.611023
1 3.48801 -2.81969 -1.22885
1 2.85927 -3.53131 -1.58806
1 3.66667 -3.95279 -1.43577
1 4.1752 -4.70193 -1.45645
1 4.2636 -5.66774 -1.71099
1 3.50582 -5.61029 -2.3085
1 3.40683 -5.82009 -1.31924
1 3.18875 -4.96956 -1.65941
1 -5.93069 8.73273 1.62235
1 -6.54982 8.22675 1.049
1 -7.03648 8.99438 1.34433
1 -7.67717 8.45595 0.888893
1 -8.38061 8.11486 1.38777
1 -9.17197 7.74025 1.0613
1 -9.59096 7.80497 0.148285
1 -9.18431 8.25625 -0.550705
1 -8.60321 9.01131 -0.730018
1 -8.50156 9.87387 -1.10952
1 -0.943927 5.37323 9.95092
1 -0.306159 6.0074 9.66245
1 0.0766939 6.05216 -10.3023
1 0.866537 5.79067 -9.74529
1 1.71688 6.02493 -10.1087
1 2.01741 6.26671 -9.27053
1 1.26234 6.41258 -8.61393
1 1.0441 7.0268 -9.34614
1 0.234179 6.58793 -9.29894
1 0.122759 7.22885 -9.96155
1 1.92807 4.96909 -6.47002
1 1.77326 5.45143 -5.61043
1 1.60707 4.52426 -5.35844
1 1.02954 4.25876 -6.13266
1 0.0829953 4.41021 -6.13338
1 0.422703 4.78279 -5.31115
1 0.672086 5.30292 -6.11879
1 0.887548 4.87842 -7.00125
1 0.509768 4.08453 -7.34811
1 1.49376 4.09923 -7.22717
1 9.32152 1.71808 9.74595
1 8.52949 2.1067 10.0197
1 7.83671 1.8298 -10.2964
1 8.44508 1.36664 -9.68512
1 7.86075 0.7176 -10.0781
1 6.93869 0.874863 -9.84529
1 6.79165 1.07626 10.1403
1 7.27947 0.588844 9.46902
1 7.71121 1.40069 9.58929
1 7.04838 1.70427 8.97712
1 -5.38104 9.79744 1.72758
1 -6.0083 -10.4055 1.69177
1 -6.02387 -9.46659 1.85679
1 -6.41254 -8.63336 2.03845
1 -6.8171 -8.97017 2.85008
1 -7.33589 -9.80936 2.68273
1 -6.98162 -10.4257 2.04703
1 -6.50625 9.66667 2.24409
1 -6.50719 10.3579 2.97968
1 -6.20816 9.58208 3.47626
1 -5.81915 0.980557 -9.40664
1 -5.56202 1.72728 -9.93959
1 -6.05409 2.58819 -10.011
1 -6.72178 3.23176 -10.2034
1 -7.11004 2.85379 9.90897
1 -6.58687 3.12521 9.17226
1 -6.27296 2.51154 8.50516
1 -5.37261 2.9223 8.3341
1 -5.52784 3.54298 9.01619
1 -5.45151 3.10702 9.84589
1 10.1606 2.94454 7.30217
1 -10.4327 2.98378 6.43237
1 10.1228 3.88331 6.53956
1 10.0785 4.04655 5.54896
1 -10.0827 4.63306 6.03305
1 -10.1357 4.52966 6.95613
1 -10.179 5.44031 6.70331
1 -10.3868 6.42646 6.80535
1 -9.77096 6.47255 7.5647
1 -9.10573 6.03054 8.02152
1 3.93088 9.05968 5.54583
1 4.09582 9.73795 6.28286
1 3.33228 9.20371 6.55093
1 3.04374 9.34705 5.64002
1 2.37892 9.43799 4.97304
1 1.61328 8.85442 5.05486
1 0.826283 9.23289 4.70614
1 -0.0268016 9.65835 4.70411
1 -0.298532 -10.4452 4.1937
1 0.569286 10.2804 3.84824
1 10.2285 10.4221 -9.05962
1 10.2762 -9.75428 -8.51655
1 -10.3654 -9.54086 -9.49913
1 9.69972 -9.2188 -9.66764
1 9.47223 -10.1658 -9.75892
1 9.80646 -10.3975 10.2575
1 10.303 -9.59 10.317
1 -10.0951 -10.281 -10.1729
1 -9.28176 10.3953 10.2958
1 -9.20302 10.0668 -9.72331
1 -3.11554 7.77518 -0.0172453
1 -2.46982 7.9149 0.679764
1 -2.35213 8.3227 -0.214955
1 -1.94899 7.7878 -0.924022
1 -2.47434 7.09884 -0.511192
1 -2.12096 6.22028 -0.332226
1 -2.30379 6.24854 0.591847
1 -1.78578 6.97235 0.411322
1 -1.47791 7.7832 0.0430874
1 -1.12732 7.05398 -0.462135
1 -0.561725 -1.88551 -9.05601
1 -0.728035 -0.923176 -9.12987
1 -1.61379 -0.941963 -9.32814
1 -2.65424 -0.889735 -9.25354
1 -2.71455 -1.49861 -9.98569
1 -2.86357 -2.1827 10.3259
1 -1.94906 -2.46269 10.1035
1 -1.78997 -2.03412 -9.96415
1 -0.92399 -1.59538 -9.9447
1 0.0185923 -1.22744 -9.87659
1 -8.6561 -8.8036 8.74817
1 -9.39905 -9.37006 8.47683
1 -9.34598 -10.1044 9.25458
1 -10.2384 -10.394 9.4881
1 -10.4075 -9.66126 8.87528
1 10.3791 -8.81571 9.29548
1 -9.82842 -9.32076 9.70169
1 -9.44377 -8.50297 9.30883
1 -9.53212 -8.26801 10.2872
1 -10.1141 -8.60741 -9.90424
1 -4.88123 -4.18993 7.02314
1 -4.0305 -4.47285 6.84703
1 -3.20153 -4.80214 6.45867
1 -4.00589 -5.40197 6.46995
1 -3.95772 -5.56276 5.49068
1 -4.83153 -5.41295 5.12115
1 -5.02641 -4.43886 5.05381
1 -5.5813 -3.88137 5.54352
1 -5.89235 -3.25777 4.96137
1 -6.43234 -3.09015 4.1683
1 3.55108 -8.42103 7.53341
1 4.21916 -8.80439 6.96922
1 4.82703 -8.55702 7.67417
1 5.68949 -9.10979 7.93309
1 5.47401 -10.0278 8.08133
1 5.70555 -10.4121 7.21763
1 4.842 10.1355 7.39794
1 5.52864 9.73883 7.99859
1 5.48754 10.0586 8.88413
1 5.13272 10.2765 9.82189
1 -3.62493 7.6435 -7.35671
1 -3.57598 7.46135 -8.3451
1 -2.77295 7.61284 -8.81791
1 -2.36455 7.18386 -9.59797
1 -1.65801 6.8685 -9.05337
1 -2.04318 5.99941 -9.22427
1 -1.8679 5.91382 -10.1756
1 -1.4525 6.61281 10.2457
1 -2.31037 7.00437 10.3114
1 -2.23984 7.1847 9.36154
1 -4.63576 -5.82325 0.42963
1 -3.9164 -5.49667 0.987001
1 -3.53819 -6.06703 0.33516
1 -3.58646 -5.6172 -0.541347
1 -3.6318 -4.72624 -0.104355
1 -3.86998 -4.01435 -0.764413
1 -3.056 -4.13713 -1.4292
1 -2.6235 -4.75377 -2.07252
1 -3.57545 -4.90214 -2.2452
1 -3.89445 -4.83359 -1.34745
1 8.1138 -8.63465 -2.3924
1 8.04803 -8.12131 -1.62077
1 8.63215 -8.72739 -1.07859
1 8.89087 -9.17936 -0.314533
1 9.1086 -9.05127 0.587889
1 9.90597 -9.09129 0.0359918
1 9.69196 -8.17214 -0.000184596
1 10.1331 -8.11422 -0.810954
1 -10.4321 -7.74727 -1.64681
1 10.3113 -8.04811 -2.58283
1 9.92749 4.27177 0.0598921
1 9.86729 3.99504 0.964859
1 9.60684 3.11548 0.704137
1 8.88639 3.68927 0.455948
1 8.80899 2.77301 0.156372
1 9.01496 3.47265 -0.466298
1 9.80731 3.26675 -0.95804
1 9.49939 4.15596 -1.05366
1 10.1352 4.77633 -0.826951
1 -9.76633 4.80686 -0.985944
1 -5.74807 -2.13849 7.23458
1 -5.03579 -2.30414 6.63369
1 -5.12938 -3.24214 6.36538
1 -4.55944 -3.94424 6.0271
1 -4.07199 -4.55311 5.43271
1 -3.54747 -4.59302 4.68059
1 -4.27449 -4.034 4.36231
1 -4.43991 -4.95081 4.16442
1 -4.52146 -4.47233 3.32295
1 -5.29967 -4.81445 3.72936
1 3.66532 0.122608 5.67621
1 2.96014 0.413008 6.23326
1 2.90117 -0.111607 7.03522
1 2.30573 -0.720592 7.39804
1 2.94146 -1.24384 6.85623
1 3.41719 -1.09876 7.70379
1 4.3502 -1.32339 7.81691
1 4.26383 -2.11677 8.46192
1 4.22166 -2.44378 7.55977
1 3.31903 -2.09852 7.50878
1 -0.176498 2.1092 -6.19172
1 -0.565665 1.71096 -5.33746
1 -1.38562 1.3779 -5.59954
1 -1.61965 1.80952 -6.44903
1 -1.05516 2.45805 -6.80901
1 -1.43482 2.88688 -7.54028
1 -2.22265 3.08099 -6.97183
1 -2.66867 3.94985 -6.83395
1 -3.00443 4.7565 -7.21004
1 -2.77604 5.48982 -7.76122
1 -7.59103 -8.14346 10.377
1 -8.12958 -8.87269 -10.2075
1 -8.66352 -9.26427 9.96412
1 -8.29225 -9.62899 9.17348
1 -7.75088 -10.2062 9.67789
1 -7.68535 9.91328 9.05221
1 -7.90963 -10.3819 8.2772
1 -7.43153 -9.62608 7.88969
1 -8.12036 -9.82195 7.2468
1 -8.48267 -9.59071 8.1058
1 -5.55055 7.64104 0.946456
1 -5.74793 6.98078 1.62868
1 -5.56945 7.77905 2.0195
1 -5.61596 7.54475 2.94741
1 -5.13025 7.12502 3.7224
1 -4.35205 7.45388 3.3104
1 -3.72074 7.10811 2.67587
1 -3.7693 7.0896 1.73649
1 -4.10621 7.99919 1.84008
1 -4.56285 7.58582 1.05399
1 1.99243 5.68135 7.41999
1 1.84624 6.71935 7.34332
1 1.04416 6.41383 6.91876
1 0.57965 7.13643 7.26388
1 1.23072 7.42904 6.74719
1 1.85885 7.96045 6.22227
1 2.517 8.35861 5.55532
1 2.08082 9.10141 6.02039
1 1.48975 8.80106 6.75298
1 2.09399 9.49326 7.06018
1 -1.68536 -1.5021 0.850156
1 -1.39773 -2.40492 0.871233
1 -1.24433 -1.96108 0.000168067
1 -0.426404 -2.18748 -0.51365
1 -0.769646 -3.10849 -0.817816
1 -0.870718 -3.05451 0.116023
1 0.0206218 -2.80942 0.321576
1 0.750949 -3.42278 0.222825
1 0.533915 -4.28141 0.66655
1 0.187716 -4.78597 -0.134163
1 -0.021431 -7.41533 -9.72112
1 -0.841247 -7.74495 -10.1105
1 -1.68876 -8.17523 -10.1211
1 -1.02963 -8.72822 10.41
1 -1.24959 -9.18367 -9.69556
1 -0.787662 -8.50001 -9.2356
1 -0.0245464 -8.37287 -8.63188
1 0.546263 -9.16949 -8.45832
1 1.49213 -8.86635 -8.36426
1 1.4727 -9.65903 -8.9233
1 -2.80786 6.05427 -2.23267
1 -2.34373 6.34423 -3.03675
1 -3.28845 6.20621 -3.05155
1 -3.8468 5.43164 -3.00416
1 -4.37789 5.59832 -3.72592
1 -4.16429 6.03714 -4.55094
1 -3.87947 6.63483 -3.84772
1 -4.05879 6.98109 -4.82752
1 -3.79291 7.87521 -4.84603
1 -2.89937 8.04551 -5.25997
1 -1.7999 0.658961 3.259
1 -1.32231 1.02857 4.01272
1 -0.653906 1.47512 4.62619
1 0.207057 1.27428 4.81927
1 0.848323 1.81555 5.23476
1 0.521942 2.08511 6.12324
1 1.32636 1.50158 6.2571
1 0.677947 0.868152 6.66777
1 0.899202 -0.0254799 6.32716
1 0.2282 -0.642915 5.96194
1 -9.82016 -7.23021 -2.80251
1 -10.078 -7.81492 -3.54694
1 9.99359 -8.36158 -3.50876
1 9.34204 -8.63445 -2.84178
1 8.72855 -9.16307 -3.28132
1 8.23103 -9.72635 -3.90135
1 9.0778 -9.94348 -4.43895
1 8.22871 10.3975 -4.68426
1 7.80535 9.60358 -5.09533
1 7.4229 8.72548 -4.83875
1 8.60386 7.44679 -3.88056
1 8.71686 8.0351 -3.14008
1 9.10453 8.88416 -3.28247
1 8.53082 9.37739 -3.89766
1 7.7921 10.0167 -3.81473
1 7.29909 9.18979 -3.94073
1 6.89137 9.42845 -3.11031
1 7.30472 10.1542 -2.64131
1 6.68412 9.68013 -2.05126
1 5.80966 9.66869 -2.64558
1 10.3475 10.2116 -7.94832
1 10.0551 9.79832 -7.07111
1 10.0943 9.74782 -6.07691
1 9.57973 10.1529 -5.42468
1 8.79686 9.83988 -5.94172
1 9.35525 10.4352 -6.47719
1 9.60887 -9.74034 -5.88008
1 10.4287 -9.18771 -5.75212
1 -10.1228 -10.1102 -5.46622
1 -9.47892 -9.66459 -6.0018
1 -2.24773 3.04157 -10.1864
1 -2.67947 2.69321 9.93426
1 -1.8319 2.36357 9.56394
1 -2.31275 2.57131 8.76219
1 -3.00268 2.12276 9.15948
1 -2.41702 1.53744 9.67625
1 -1.9461 1.59246 8.8412
1 -1.93662 1.34848 7.93541
1 -1.82188 0.488142 7.4801
1 -2.31653 0.0801342 8.15067
1 8.9467 7.4056 -6.8118
1 8.42054 6.64528 -6.92407
1 9.01248 5.90904 -7.17319
1 9.52948 5.11601 -7.4636
1 -10.4481 4.92093 -7.29642
1 10.2233 4.39607 -8.0621
1 10.0453 3.45568 -7.8678
1 9.9367 2.80495 -8.52386
1 10.3747 2.65496 -9.35305
1 -9.96899 3.27399 -9.81723
1 0.987728 8.42967 -2.63885
1 0.5836 8.21542 -1.8231
1 0.910359 8.57821 -1.0011
1 1.55279 8.76059 -1.62279
1 2.04819 8.41018 -2.397
1 2.89311 8.44972 -2.9293
1 3.3108 7.71756 -3.27197
1 4.23067 7.78339 -3.4796
1 4.06649 6.88783 -3.9336
1 3.90884 6.02472 -4.32051
1 2.61084 8.55664 -1.56073
1 3.12781 8.78129 -0.692427
1 3.8671 8.72851 -1.26106
1 3.72774 7.87628 -0.791249
1 4.57436 8.0052 -1.24708
1 5.2741 7.95417 -1.94299
1 4.80814 7.40054 -2.57601
1 4.69892 6.65241 -2.07296
1 4.4084 6.92002 -1.21974
1 3.77606 7.35489 -1.8345
1 -8.06227 -7.31084 6.60712
1 -8.65062 -7.85965 6.01185
1 -9.26471 -8.38854 5.58301
1 -10.1474 -8.30572 5.87892
1 9.76883 -8.35242 6.01034
1 9.25468 -9.04556 6.3857
1 8.37552 -9.16971 6.19711
1 8.06396 -9.72776 6.9451
1 7.41815 -10.3305 6.40893
1 6.99578 -9.94371 7.18242
1 10.148 9.61567 -3.4427
1 9.45521 10.0543 -3.90455
1 9.46026 9.19713 -4.37965
1 9.44545 8.34396 -4.79242
1 9.7752 7.73609 -5.49669
1 10.2815 7.71479 -6.31417
1 9.50154 8.20987 -6.66019
1 9.30601 9.16312 -6.64582
1 9.2257 8.78861 -5.66736
1 8.28691 8.74206 -5.82965
1 -9.84691 2.37213 2.07999
1 -10.4331 2.26385 2.8709
1 -10.1423 1.46126 3.4402
1 -9.36245 1.35738 2.84631
1 -8.8721 2.03525 2.31372
1 -8.7743 2.82132 2.77553
1 -8.83795 2.74019 3.68984
1 -9.33351 3.21474 4.35391
1 -8.3507 3.07932 4.62872
1 -8.49119 3.97458 4.45812
1 6.60367 8.78387 4.48057
1 6.23909 9.60218 4.10538
1 6.24548 8.90031 3.5118
1 6.01126 8.08389 3.8657
1 6.49851 7.93748 3.0721
1 7.44329 7.84322 3.10311
1 7.18192 8.05758 3.9652
1 8.16375 7.91871 4.04366
1 8.70285 7.84606 3.18734
1 8.21845 7.08458 2.94135
1 -8.67223 -3.0489 8.57093
1 -8.57742 -2.90478 9.5452
1 -8.0102 -3.27776 10.279
1 -7.6704 -3.70272 -9.80827
1 -6.92226 -3.08693 -9.80266
1 -6.71534 -3.40071 10.2564
1 -7.231 -3.47162 9.48401
1 -8.09469 -3.83723 9.26988
1 -7.78282 -4.76042 9.39203
1 -7.30389 -4.66538 8.52947
1 3.57641 5.04842 -0.0748649
1 3.64634 4.37529 0.55925
1 2.87473 4.84262 0.784529
1 2.02779 4.43318 0.930198
1 1.51415 4.23222 0.177298
1 0.67353 4.56375 0.647989
1 0.530995 3.97763 -0.13019
1 -0.387509 3.93184 -0.119842
1 -0.314948 4.89672 0.0680284
1 -1.18726 5.13069 -0.281938
1 -5.95167 -3.99589 3.3285
1 -5.50425 -3.16907 3.22441
1 -4.73891 -3.27675 3.77749
1 -5.35086 -3.87039 4.19978
1 -6.08453 -4.24042 4.67121
1 -6.44266 -4.76885 3.96203
1 -5.83587 -5.22197 4.6222
1 -6.5804 -5.81875 4.32978
1 -6.99238 -5.44136 3.57545
1 -7.63659 -5.96536 4.09902
1 -4.45818 -5.19597 -2.24387
1 -5.20613 -5.66037 -1.91117
1 -6.03969 -5.98688 -2.13193
1 -6.395 -5.71565 -3.02836
1 -7.12033 -5.18486 -3.39095
1 -6.47961 -5.22604 -4.10407
1 -6.22403 -6.15809 -3.90395
1 -6.05067 -6.7086 -3.08317
1 -6.28947 -7.47466 -2.59459
1 -7.0108 -7.18041 -3.09048
1 -3.08063 2.48368 -1.869
1 -3.93813 2.58196 -2.20205
1 -4.21766 3.49173 -2.25049
1 -3.72967 4.02549 -3.01557
1 -4.09033 3.97365 -3.89819
1 -4.6874 4.66258 -4.11892
1 -4.81027 5.24574 -4.88092
1 -5.4653 5.54093 -5.48187
1 -6.0328 5.19049 -4.77437
1 -6.13249 5.29832 -3.82899
1 5.82173 -1.05432 -8.1526
1 5.97951 -0.931411 -9.08365
1 5.90293 -1.87142 -9.28787
1 6.7274 -2.40704 -9.37123
1 6.44285 -3.09416 -8.75309
1 5.77814 -3.3111 -8.08926
1 6.46623 -3.90904 -7.92582
1 6.23666 -4.7774 -8.27283
1 5.86875 -4.15162 -8.87597
1 5.95009 -4.99083 -9.30553
1 -5.56127 2.70598 -5.56762
1 -6.22382 2.12663 -5.13799
1 -7.14948 1.89592 -5.49977
1 -7.17286 2.85214 -5.35142
1 -6.70841 2.86597 -6.19351
1 -5.93963 2.43351 -6.38288
1 -6.13121 2.8231 -7.24799
1 -6.7722 3.12704 -7.91197
1 -5.95272 2.70829 -8.32498
1 -5.83421 2.08499 -9.06497
1 0.132462 -6.08875 6.19358
1 -0.568809 -6.82753 6.2067
1 -1.13549 -7.6512 6.12329