8000
Atoms. Timestep: 0
1 2.88318 -4.69636 10.0599
1 3.35217 -5.4159 -10.1538
1 3.79627 -4.84852 -9.47596
1 4.20356 -4.90559 -8.60542
1 3.32005 -4.73075 -8.2921
1 2.85312 -5.4119 -8.79123
1 2.9278 -5.6169 -7.8959
1 3.77771 -5.80478 -8.28762
1 3.60685 -5.98294 -9.22507
1 4.50757 -5.66961 -9.3489
1 -5.82903 6.20256 -1.93383
1 -4.96853 5.98851 -1.583
1 -4.69205 5.14081 -1.32045
1 -5.53267 5.1126 -0.855342
1 -5.79091 4.42974 -1.45507
1 -5.9927 3.98782 -2.25057
1 -6.83139 4.28067 -2.5702
1 -6.81139 3.37418 -2.9217
1 -7.41461 3.25001 -3.66706
1 -8.04107 2.68972 -3.33008
1 -9.31269 6.9695 -1.33137
1 -9.37691 6.09231 -1.07555
1 -8.77879 5.48234 -1.5638
1 -9.22012 6.04505 -2.25813
1 -8.28316 5.89727 -2.41998
1 -7.68883 6.14268 -3.20512
1 -8.45955 6.24731 -3.70673
1 -7.84947 6.95221 -3.93816
1 -8.61071 7.07115 -4.50246
1 -8.65305 7.69988 -3.76766
1 6.42033 -5.30054 8.39347
1 5.94544 -5.31554 7.5905
1 6.17118 -4.34626 7.52789
1 6.82822 -4.3946 8.2064
1 6.40592 -4.39227 9.02476
1 6.79511 -5.14866 9.46491
1 7.30023 -4.68301 10.1009
1 6.37863 -4.62596 -10.2153
1 5.84041 -3.99754 9.93736
1 6.6946 -3.65546 9.73967
1 0.526132 0.994047 -8.14162
1 0.700571 1.22843 -9.05412
1 0.496925 0.29991 -9.00545
1 1.3028 -0.035419 -8.62301
1 0.540141 -0.132746 -8.04664
1 -0.0032054 -0.743778 -8.57749
1 0.724894 -1.14598 -8.9671
1 1.52833 -0.872867 -9.46648
1 2.17306 -1.15313 -10.1046
1 1.80389 -1.8994 -9.64344
1 -8.51059 9.07053 5.22776
1 -8.8697 8.46144 4.50191
1 -9.77916 8.50583 4.68684
1 -10.3189 9.13884 5.21465
1 -10.0461 9.36416 6.10329
1 -9.81176 8.45616 5.81647
1 -10.301 7.72385 5.49684
1 9.58255 7.50188 5.12206
1 9.36258 6.59952 4.75251
1 9.64411 5.77018 4.27355
1 5.41392 -5.42863 5.35284
1 4.53338 -5.5985 5.13177
1 3.53185 -5.65748 5.12078
1 3.9394 -5.50174 5.95101
1 4.66269 -5.53015 6.60785
1 5.20024 -4.8712 7.08704
1 4.76165 -4.03248 7.07273
1 5.3202 -3.51068 7.65512
1 4.51609 -3.80108 8.10558
1 4.13402 -3.05043 7.66057
1 -8.10078 -6.68521 3.21611
1 -8.40125 -6.68781 2.34125
1 -8.96558 -6.45726 1.58786
1 -8.66098 -6.54062 0.673282
1 -9.56707 -6.80859 0.60999
1 10.1066 -6.88508 0.710642
1 -10.1161 -6.76499 1.59242
1 -9.81611 -6.35818 2.39804
1 10.2939 -6.87481 3.04923
1 9.75226 -6.90891 2.24681
1 -7.84288 0.0332673 5.65982
1 -7.68019 -0.735228 6.18235
1 -7.53152 -0.0995173 6.85338
1 -6.8742 -0.377404 7.52773
1 -7.42448 0.427537 7.71474
1 -7.84122 0.436731 8.5837
1 -7.67249 -0.436006 8.26248
1 -7.51929 -1.34085 7.94941
1 -7.35084 -1.33106 7.03
1 -8.15179 -1.76755 7.23324
1 7.04157 3.79594 -1.7143
1 7.81937 4.24894 -1.5983
1 7.44585 4.11922 -0.758232
1 8.05285 3.2593 -0.866141
1 8.14228 2.27809 -1.06692
1 8.02497 1.4117 -1.49198
1 7.9682 1.1619 -0.602382
1 8.30935 1.16463 0.285392
1 8.18021 1.85038 0.957881
1 8.70191 1.65872 1.75753
1 8.83393 9.96176 -9.46031
1 9.47865 -10.1451 -9.88794
1 9.88888 -10.1838 9.82835
1 -10.2397 9.81137 9.36472
1 -9.64569 10.2073 8.77377
1 -9.11286 -9.96292 8.16758
1 -9.2886 9.83115 7.84212
1 -9.08583 9.33094 7.08695
1 -9.46452 8.77243 7.77605
1 -9.86052 9.21261 8.59035
1 -1.76079 9.59997 -6.34781
1 -2.01752 8.89192 -5.79088
1 -1.78467 8.24664 -5.17274
1 -2.11968 7.51226 -5.74108
1 -2.50625 6.70137 -6.06598
1 -3.13158 6.82873 -6.73856
1 -2.50916 7.16556 -7.33925
1 -1.9279 6.7627 -8.00365
1 -1.0351 7.1002 -8.05284
1 -0.686973 7.59144 -8.84583
1 5.4563 1.448 -2.33233
1 6.09078 2.09331 -1.99709
1 6.54678 2.70477 -1.4151
1 7.43602 2.82792 -1.65567
1 7.1576 1.95497 -1.90397
1 7.0336 1.91805 -2.85886
1 6.07752 1.97088 -3.03004
1 5.63017 1.28028 -3.54944
1 6.51117 1.05639 -3.18881
1 6.4477 1.10197 -2.25804
1 -9.6226 5.18348 0.423943
1 -9.87657 4.98627 -0.46828
1 9.90083 5.1083 -0.152079
1 9.35638 4.9135 -0.890638
1 8.59887 4.31242 -1.01236
1 8.79857 4.91248 -1.76602
1 8.25909 4.70212 -2.50434
1 9.14902 4.62874 -2.84601
1 9.75587 5.37851 -2.79612
1 9.78788 5.71302 -1.95115
1 -9.34141 -1.55502 -2.44673
1 -8.54474 -1.96668 -2.68665
1 -8.17884 -1.1324 -2.45838
1 -8.90627 -0.58771 -2.19411
1 -9.45048 -0.173716 -1.58629
1 -8.87018 0.597204 -1.78524
1 -9.25913 0.640068 -2.63904
1 -8.24682 0.719479 -2.70194
1 -7.3317 0.292145 -2.58205
1 -7.70533 -0.465433 -3.08309
1 5.07409 8.60082 -6.84392
1 5.86028 8.16918 -7.05946
1 5.81807 9.18048 -6.9929
1 5.57549 9.27038 -6.04542
1 5.2803 10.0791 -6.5219
1 6.16179 -10.2522 -6.52759
1 5.64803 -9.7686 -5.91712
1 5.4688 10.0982 -5.3664
1 4.98227 9.66197 -4.68534
1 5.70866 10.1365 -4.27907
1 -7.59524 -4.45314 -0.672491
1 -7.91994 -3.92706 0.0740354
1 -8.59408 -3.34867 0.396541
1 -9.26379 -2.8544 -0.0622828
1 -9.75166 -2.82183 -0.845441
1 10.2567 -3.23934 -1.3595
1 9.54072 -3.93544 -1.21476
1 9.56673 -4.59715 -0.533373
1 9.51317 -5.55834 -0.45484
1 9.10508 -6.37051 -0.825181
1 1.67343 0.163922 0.41221
1 0.788354 0.531968 0.394138
1 0.920685 0.840044 1.28691
1 0.093502 1.09798 0.796599
1 -0.594923 0.470197 0.925197
1 0.221581 0.112056 1.19504
1 0.903896 -0.521771 0.862791
1 0.913923 -1.38326 1.35157
1 1.08343 -2.15643 1.83322
1 1.24803 -3.04575 2.10328
1 -9.033 0.745259 -6.22469
1 -8.94175 -0.0669638 -5.76936
1 -8.34253 0.0487282 -4.95332
1 -7.82654 0.819073 -5.19272
1 -7.43666 1.58647 -4.73443
1 -8.19374 1.73807 -5.29727
1 -9.12351 1.6799 -5.61487
1 -9.48501 0.902546 -5.28811
1 -8.89409 0.91937 -4.44719
1 -8.32601 1.71258 -4.31988
1 1.28562 5.45188 -0.884588
1 1.12881 5.94143 -1.70132
1 0.365122 5.38094 -1.56481
1 0.972993 4.90959 -2.03698
1 1.84501 4.46758 -2.13812
1 1.88451 5.34844 -1.72359
1 1.9985 6.13301 -1.14102
1 1.6907 6.85453 -1.73332
1 2.46694 7.2777 -2.12202
1 2.55957 8.19551 -1.85191
1 -2.09012 9.57079 1.90907
1 -1.25547 9.21193 2.34857
1 -0.39901 8.90697 2.3795
1 -0.643454 8.4232 3.21525
1 -0.800348 7.48984 3.42798
1 -1.28808 7.58312 4.19931
1 -0.727402 6.90451 4.62153
1 -0.261525 7.69066 4.28997
1 0.140119 6.82721 4.17594
1 -0.394207 6.04995 4.30154
1 -6.75486 -1.16971 5.89683
1 -6.4443 -2.06111 5.72482
1 -6.05907 -1.44906 5.07327
1 -5.3897 -1.69628 5.74963
1 -5.78884 -1.85046 6.54014
1 -4.78308 -1.78186 6.68229
1 -4.37063 -0.924851 6.45013
1 -3.50384 -0.470644 6.44129
1 -2.9052 0.291105 6.82373
1 -1.89472 0.333375 6.80318
1 4.35618 1.46234 -1.37163
1 4.16021 1.4245 -2.31307
1 4.67178 0.664692 -2.05146
1 4.19725 0.457146 -1.29765
1 3.39733 0.410713 -1.78134
1 3.18114 0.403232 -0.822393
1 3.16748 0.127182 0.12719
1 3.3462 -0.655965 -0.380807
1 4.11656 -0.827403 -1.00829
1 4.96087 -0.393574 -0.894408
1 -9.17114 -1.9043 -6.16518
1 -8.95853 -1.01267 -6.11557
1 -9.81848 -0.698189 -5.72208
1 -10.2416 -1.41379 -5.36632
1 9.88155 -1.74223 -4.62204
1 9.15575 -1.97666 -4.00284
1 8.77962 -2.75084 -3.64691
1 8.84423 -3.07581 -4.53643
1 8.57376 -2.74856 -5.43269
1 8.433 -2.02082 -4.80332
1 3.43436 6.08608 7.53376
1 4.04106 5.45767 7.86176
1 4.47307 5.2477 8.64618
1 4.40882 4.50178 7.96944
1 3.47062 4.62661 8.1165
1 3.6523 4.39789 7.21671
1 3.38314 4.93395 6.45899
1 4.30295 5.29082 6.476
1 4.41822 5.12947 5.55297
1 4.39992 4.23033 5.18428
1 9.44586 -4.34878 9.08384
1 8.82967 -4.27238 8.31721
1 8.7487 -5.14685 8.65705
1 8.34375 -6.04887 8.55602
1 8.95076 -6.83123 8.64557
1 9.79224 -6.79538 9.06757
1 -10.1394 -6.38939 8.69645
1 -10.002 -5.7335 9.36183
1 -9.11922 -5.87132 9.58082
1 -9.01823 -6.24294 8.68985
1 -2.81279 10.1181 3.52709
1 -3.00104 -9.69161 3.15678
1 -2.19703 -9.38324 2.86028
1 -1.88289 -8.59895 2.42781
1 -2.30622 -8.21957 1.63134
1 -3.05443 -8.71448 1.98769
1 -3.6841 -9.21816 2.50705
1 -4.48548 -9.69794 2.4412
1 -4.2542 -9.51069 3.40562
1 -3.90914 10.2614 3.17228
1 9.09509 -0.951286 9.53768
1 8.67981 -0.595377 -10.3347
1 8.4085 -0.13919 9.43977
1 8.37752 0.796624 9.09055
1 8.53894 1.65919 8.74402
1 8.24049 1.92004 7.88105
1 8.12445 0.943084 7.94672
1 7.18425 0.761348 7.90729
1 7.01196 0.595595 7.01282
1 6.67311 0.770357 6.16522
1 -7.22245 7.65165 4.18933
1 -8.16576 7.54577 3.93325
1 -8.38202 7.08497 4.75612
1 -7.80908 6.53757 5.27945
1 -7.44914 6.63031 4.3578
1 -6.63982 6.18884 4.68625
1 -6.81979 5.581 5.38741
1 -7.28475 5.12006 4.6207
1 -6.34881 5.206 4.44669
1 -6.08693 4.30809 4.09786
1 -0.622642 -1.02293 3.34232
1 -0.685092 -1.19528 2.42583
1 -0.279383 -0.388362 2.23328
1 -0.904701 -0.33149 1.52181
1 -0.676943 -0.744245 0.691689
1 -0.0886497 -1.02135 1.45058
1 -0.113228 -1.93907 1.78293
1 0.277963 -1.61392 2.62624
1 0.104194 -1.8776 3.55225
1 0.371341 -0.954301 3.48956
1 -0.701848 -3.45456 -10.2678
1 -0.633059 -2.58523 9.962
1 -0.94209 -3.38001 9.46494
1 -0.65988 -4.10029 8.88942
1 -1.06195 -3.40212 8.33458
1 -1.05615 -3.5619 7.41448
1 -0.792766 -2.81375 6.84587
1 -1.24197 -2.89726 6.00654
1 -2.08491 -3.33931 5.81138
1 -1.22388 -3.71133 5.39746
1 5.44835 -3.46666 8.7315
1 5.42557 -4.38062 8.57367
1 4.7674 -4.76967 8.00196
1 4.23075 -5.22292 8.68013
1 3.77899 -4.87673 9.45286
1 3.8353 -4.22062 10.1383
1 4.73703 -4.25554 10.0389
1 5.08058 -3.47495 9.66048
1 4.15753 -3.32733 9.43895
1 4.41069 -4.17293 9.07248
1 -4.05595 3.09115 0.476862
1 -4.85195 3.48559 0.246182
1 -4.68472 3.63165 1.13306
1 -5.06658 4.53094 1.45378
1 -5.93499 4.22352 1.18451
1 -6.52392 4.90225 1.46082
1 -5.79482 5.12097 2.04709
1 -4.90488 5.26661 2.34947
1 -4.55581 4.63507 2.971
1 -5.50143 4.5623 2.92615
1 3.10122 7.20366 -5.20961
1 3.29349 8.12388 -5.01636
1 2.8111 8.99373 -4.89871
1 3.05146 9.86388 -5.20785
1 3.33448 -10.1094 -5.78641
1 3.28539 -9.1335 -5.89954
1 3.86828 -9.29005 -5.16958
1 3.04365 -9.25415 -4.67327
1 2.60341 -8.59062 -5.2727
1 2.66219 -8.21907 -6.1043
1 -5.02458 2.36099 -8.89729
1 -5.96852 2.31314 -9.0886
1 -6.56163 1.60868 -8.73954
1 -5.84308 1.74075 -8.16549
1 -6.04586 0.850008 -7.77107
1 -5.48674 0.694966 -6.97727
1 -4.9856 -0.0292508 -6.49849
1 -4.15086 0.455285 -6.53388
1 -4.59484 1.26931 -6.81453
1 -5.33798 1.81499 -7.00367
1 1.43081 3.681 1.84359
1 2.32304 4.16314 2.02829
1 2.03083 5.12845 2.22999
1 1.56942 4.93017 3.05743
1 1.52725 5.81863 3.06661
1 2.25575 6.05483 3.66781
1 1.97136 6.30798 4.5522
1 2.24731 5.62241 5.12795
1 2.89723 6.26834 4.81669
1 3.3204 6.0439 4.06428
1 -2.35251 -8.42889 -6.42589
1 -2.5931 -8.16728 -7.3339
1 -2.31343 -7.42132 -7.94794
1 -3.16197 -7.17365 -7.55442
1 -3.57357 -8.03741 -7.51313
1 -3.26839 -8.67561 -8.21186
1 -3.93941 -9.06594 -7.60878
1 -3.1149 -9.47258 -7.45851
1 -3.01924 -9.3109 -6.54657
1 -2.72389 -9.32355 -5.62028
1 -9.58413 8.4172 2.21451
1 -9.9574 9.23398 2.00729
1 10.2098 9.90437 2.39555
1 -10.1433 10.1167 1.51535
1 -9.65695 9.53352 0.943316
1 -10.3132 9.96984 0.400198
1 9.67356 9.65169 -0.229878
1 8.89034 10.1676 -0.394754
1 9.57558 -9.94675 -0.121022
1 10.185 -9.70253 0.615867
1 -1.43129 8.77009 0.269836
1 -1.67306 8.70853 -0.670975
1 -1.53371 9.61496 -1.09992
1 -2.22851 9.17159 -1.62001
1 -2.86661 8.79921 -0.996124
1 -2.76475 9.36848 -0.236722
1 -2.2814 9.57734 0.53916
1 -1.42109 9.6166 0.995021
1 -1.40267 9.86864 0.0129455
1 -0.737141 9.35261 -0.479104
1 1.85389 -4.83065 9.98797
1 1.84769 -4.77391 -9.75126
1 0.913764 -4.64195 -10.0417
1 1.49981 -3.9347 -9.68901
1 2.2569 -3.83588 -10.2703
1 1.73952 -3.01301 -10.0801
1 2.51268 -2.57063 10.312
1 1.81823 -2.154 9.80871
1 0.935151 -2.24376 10.2266
1 1.05248 -1.30085 10.2873
1 1.14583 3.48703 4.91119
1 1.48901 2.65397 4.67344
1 1.89607 3.31171 4.02897
1 1.29632 2.92806 3.35036
1 1.23217 2.01697 3.75673
1 0.698915 2.00606 4.5868
1 -0.238409 1.8128 4.44177
1 -0.486192 1.02655 4.85102
1 0.0888865 1.24791 5.59047
1 0.654998 0.569995 5.96906
1 3.80644 -6.16427 6.97743
1 3.0605 -5.58279 6.75446
1 2.64524 -5.47577 5.89856
1 1.7751 -5.38468 6.21156
1 2.12272 -4.87504 6.91857
1 1.60445 -5.44855 7.4504
1 1.88929 -4.75291 8.00614
1 2.34437 -3.93286 7.85135
1 3.03817 -4.18877 7.32481
1 3.14214 -3.27632 7.48459
1 -1.76737 0.722265 -2.43115
1 -1.1072 1.40035 -2.31803
1 -0.554014 0.648745 -2.40046
1 -0.975393 0.82843 -3.24757
1 -0.162016 1.37135 -3.06883
1 -0.57488 1.74452 -3.76906
1 0.132386 1.29897 -4.27884
1 0.782892 1.94179 -4.56968
1 0.331491 2.25906 -5.39307
1 0.471862 1.68798 -6.14171
1 9.82794 -9.51897 1.93612
1 10.0944 -9.6757 2.83706
1 -9.66881 -9.67484 2.38641
1 -10.0989 -8.81194 2.39513
1 -9.48956 -8.11132 2.20906
1 -10.0876 -7.79045 1.53329
1 10.1349 -7.89403 2.37478
1 9.68117 -8.40882 1.69313
1 9.75556 -7.95442 0.864321
1 9.21207 -8.1326 0.0893017
1 1.58882 5.00991 5.71763
1 1.91517 4.55563 4.90638
1 2.80866 4.66466 4.92129
1 3.64643 4.22744 4.54827
1 2.76572 4.09883 4.04096
1 3.48155 4.32539 3.38835
1 2.59421 4.35832 2.97555
1 1.72457 3.96258 3.01624
1 1.29459 4.21588 3.83216
1 0.447937 4.16295 3.43272
1 -6.35821 -1.47524 2.36415
1 -6.84604 -1.01936 3.0535
1 -7.56387 -1.07825 2.44494
1 -7.58521 -1.31872 1.53645
1 -8.52701 -1.49873 1.54653
1 -9.24684 -1.80772 2.18264
1 -9.13565 -2.45089 1.41259
1 -8.24214 -2.80536 1.19351
1 -7.58924 -3.52486 0.971703
1 -7.10309 -2.81292 0.587471
1 3.88585 -1.69467 -0.502398
1 3.66106 -1.68924 -1.48707
1 4.46694 -2.19884 -1.54479
1 4.29383 -1.96783 -2.44466
1 5.22146 -1.78539 -2.21052
1 5.20909 -2.30247 -3.00605
1 4.94765 -2.91699 -2.2758
1 4.59039 -3.82034 -1.94616
1 4.3055 -4.35951 -2.6751
1 4.27919 -5.1322 -3.34533
1 4.01988 -7.27475 -3.53686
1 3.14769 -6.89776 -3.62401
1 3.819 -6.47895 -4.21214
1 4.55607 -6.20505 -3.65569
1 5.02009 -6.3183 -2.83779
1 5.88341 -6.40793 -2.55415
1 6.64511 -6.71787 -3.00721
1 7.60514 -6.79477 -3.1056
1 8.40833 -6.5237 -2.73206
1 7.79308 -5.98728 -2.22251
1 5.96551 -0.871158 8.29917
1 5.99624 -1.74056 7.96367
1 5.2876 -1.74582 7.24479
1 5.61682 -2.60932 7.18855
1 5.32152 -2.57932 8.12381
1 4.52072 -2.09258 8.23943
1 4.53084 -2.22342 9.1558
1 3.75666 -1.72187 9.01133
1 3.9505 -1.5984 9.98072
1 3.54648 -2.4198 9.60482
1 -8.30733 -8.84338 5.30274
1 -7.81815 -8.5042 6.0388
1 -8.14149 -7.87539 6.65427
1 -7.66622 -8.56872 7.12102
1 -7.76318 -8.20736 8.01686
1 -7.58057 -7.26674 7.99851
1 -8.32585 -6.80311 8.24818
1 -7.87149 -6.54344 9.00243
1 -7.6331 -7.42965 9.29906
1 -8.49952 -7.83184 9.42446
1 -2.01524 -2.40423 1.52664
1 -2.06869 -3.35523 1.72115
1 -2.89458 -3.75156 1.81606
1 -2.84893 -3.07658 1.07644
1 -2.07783 -3.00861 0.513424
1 -1.90611 -3.34746 -0.413102
1 -2.38141 -2.94469 -1.06026
1 -3.27458 -2.6924 -1.26025
1 -2.77693 -2.782 -2.1036
1 -3.18205 -1.92285 -2.01834
1 -3.18831 -1.12064 -9.59906
1 -3.44148 -2.00609 -9.28161
1 -4.10574 -2.23049 -8.60447
1 -4.40342 -2.98533 -8.18913
1 -5.37348 -3.11091 -8.36293
1 -5.23798 -2.12595 -8.52946
1 -5.48355 -1.61656 -7.68052
1 -5.08664 -2.46635 -7.36109
1 -4.34096 -1.91535 -7.63394
1 -3.39127 -2.03559 -7.84751
1 10.3077 5.60973 1.09902
1 -9.99715 6.4568 1.152
1 -9.42335 7.04331 0.737636
1 -9.03116 6.14567 0.699849
1 -8.96763 6.56615 1.52142
1 -8.54401 5.81215 1.90369
1 -7.70051 5.37165 1.88543
1 -7.97511 4.93392 2.66099
1 -8.0685 5.84059 2.9514
1 -7.67341 6.4416 2.33713
1 -8.66751 -1.95251 -7.35121
1 -9.33476 -1.37034 -7.75713
1 -8.98868 -1.41279 -8.64868
1 -9.20767 -0.850109 -9.4036
1 -9.99023 -0.286451 -9.22034
1 -9.66062 0.180181 -8.46993
1 -9.18078 0.989566 -8.52269
1 -8.56856 1.22318 -7.86284
1 -7.6212 1.18827 -8.19819
1 -7.1403 1.15159 -7.41819
1 5.85137 1.36551 1.93791
1 6.3053 1.19769 1.12152
1 5.51752 1.67702 0.922338
1 4.63854 1.85357 0.585668
1 5.10525 1.47221 -0.178944
1 6.0386 1.27467 0.0538537
1 6.98409 1.06212 -0.176254
1 7.56569 0.4229 0.10194
1 6.74653 0.237234 0.530603
1 6.24859 -0.319588 1.13784
1 -5.87867 6.55737 -6.98045
1 -6.63754 7.09082 -7.12376
1 -7.22115 7.70361 -6.59999
1 -7.66785 7.24492 -7.26246
1 -8.40449 7.03952 -7.88136
1 -8.40478 6.46325 -8.67703
1 -9.07469 6.27468 -9.32855
1 -9.05375 7.11505 -9.86022
1 -8.96697 6.6043 10.0135
1 -8.65421 7.25022 9.35177
1 9.3178 -8.13881 6.07231
1 10.169 -7.97813 6.4763
1 10.1566 -8.70779 5.87256
1 10.0915 -9.22714 5.08362
1 9.32836 -9.76794 5.13965
1 9.7509 -9.82742 6.04006
1 9.07078 -9.1749 6.08909
1 9.77297 -8.97766 6.74298
1 -10.1426 -9.57829 6.9146
1 -9.76206 -8.7639 6.69144
1 -2.53702 -10.3129 -4.23216
1 -2.89035 -10.2819 -3.34633
1 -3.24421 9.57318 -3.61048
1 -3.4155 9.55116 -2.66295
1 -3.40476 9.15544 -1.80469
1 -3.22661 8.55686 -2.53807
1 -4.132 8.36356 -2.3211
1 -4.19805 9.02489 -3.04381
1 -4.54884 8.35007 -3.65722
1 -4.67942 8.22188 -4.55877
1 7.7331 -1.6716 -1.80157
1 7.32893 -2.01746 -2.53927
1 6.79542 -1.54809 -3.20237
1 6.3252 -2.39244 -3.04391
1 5.97228 -2.63364 -2.21568
1 5.56578 -2.4245 -1.32012
1 5.17886 -1.56622 -1.15387
1 5.91464 -0.887833 -1.25889
1 6.82198 -1.08617 -1.25469
1 7.40464 -1.43181 -0.580779
1 -3.13955 -6.3633 1.08974
1 -3.82172 -6.55826 0.469357
1 -4.6995 -6.19698 0.557906
1 -4.60331 -6.19761 1.55667
1 -3.8862 -6.64169 1.95889
1 -2.92739 -6.60714 2.21617
1 -2.64272 -6.5518 3.16216
1 -2.34038 -5.77991 3.66999
1 -2.0533 -4.94381 3.97912
1 -1.50382 -5.38217 3.30576
1 -2.98041 -2.63747 -6.92541
1 -2.70467 -1.76296 -6.5829
1 -2.41011 -1.4408 -5.66855
1 -2.36115 -0.451974 -5.84396
1 -1.97666 0.24507 -6.37526
1 -1.11393 0.0389106 -5.96122
1 -0.253266 0.575165 -5.88858
1 0.615624 0.6275 -6.33621
1 1.14985 0.78402 -7.09111
1 1.9996 1.30992 -7.0925
1 -4.2457 9.30439 6.89156
1 -4.10613 8.68832 6.19033
1 -3.5634 8.98294 5.46404
1 -3.53093 9.75842 4.93119
1 -3.33439 -10.2329 5.60449
1 -2.35946 10.2385 5.65507
1 -2.17107 -9.59757 6.0476
1 -1.81926 -9.66095 5.18791
1 -1.09679 -8.99983 5.27467
1 -0.267266 -9.20952 4.83078
1 -3.44761 7.54999 1.8243
1 -3.43185 6.61274 1.64224
1 -4.25733 6.12411 1.61982
1 -3.85017 5.25912 1.85213
1 -2.92038 5.13133 1.83955
1 -2.70778 4.484 1.16128
1 -3.05497 3.68303 1.64133
1 -3.75068 4.09975 1.03978
1 -4.19492 4.8971 0.642227
1 -4.00084 4.26721 -0.056246
1 1.03677 -3.1533 4.89975
1 1.25553 -2.47785 5.55976
1 1.66817 -3.02046 6.18569
1 2.21309 -2.31221 6.55864
1 2.17855 -2.15777 7.53809
1 2.59807 -1.3821 7.99365
1 3.00933 -0.590619 8.37274
1 2.0464 -0.700353 8.55843
1 1.95759 -1.68569 8.68644
1 2.67938 -2.2367 9.10293
1 1.12026 7.03125 -0.855842
1 1.91105 7.55263 -0.993874
1 2.18803 8.42552 -0.757404
1 2.56392 7.79436 -0.11237
1 1.76901 8.17396 0.235095
1 0.942337 8.02634 -0.223889
1 1.30946 8.89412 -0.442693
1 0.858563 8.98541 -1.29599
1 0.713964 7.96347 -1.51919
1 0.438389 8.41825 -2.27361
1 -3.54016 -5.08551 5.18071
1 -3.61496 -5.38281 6.05788
1 -2.96705 -4.82546 6.52018
1 -2.43103 -4.91021 7.29282
1 -1.477 -4.76903 7.42008
1 -1.72448 -4.00925 6.77625
1 -1.98254 -3.11166 6.87375
1 -1.76194 -2.15155 7.00429
1 -0.900098 -1.70455 6.69818
1 -0.183359 -1.95496 6.02318
1 -8.35265 -8.01541 2.69253
1 -8.9564 -7.36668 3.0912
1 -9.254 -7.39186 4.03039
1 -9.95571 -6.79563 3.98163
1 10.2463 -7.56521 4.19253
1 10.0876 -8.1423 4.97694
1 -10.2029 -8.65227 4.31073
1 -9.73644 -8.64662 5.13751
1 -9.11192 -9.25699 4.83284
1 -9.05576 -8.4745 4.18947
1 -6.3094 -8.26811 0.434046
1 -5.69136 -8.82144 -0.053431
1 -5.4327 -7.91348 0.0159058
1 -5.12594 -8.18806 0.8928
1 -5.48497 -7.90502 1.74464
1 -6.19883 -8.53163 1.57025
1 -5.69415 -9.11988 1.03339
1 -5.45439 -9.1766 1.94652
1 -6.22558 -9.22254 2.55363
1 -7.12438 -9.12131 2.09307
1 -3.09652 5.49589 9.79625
1 -3.8091 6.00161 10.2236
1 -4.0744 5.65706 9.37887
1 -4.14327 6.51975 9.0158
1 -3.28153 6.55672 9.53959
1 -2.81858 5.99853 8.83195
1 -3.34141 5.22185 8.85277
1 -4.10632 4.67225 8.58646
1 -4.61154 5.47166 8.38101
1 -4.82445 6.33654 8.08287
1 -5.50419 1.84861 9.27696
1 -4.65696 1.9834 8.88165
1 -4.47708 2.34398 7.96178
1 -4.70588 2.6281 7.05421
1 -5.2521 2.51307 6.2473
1 -5.37915 3.37212 6.61739
1 -5.64864 3.08839 7.49483
1 -6.56029 3.2964 7.8306
1 -6.41306 3.42251 6.87379
1 -6.25272 4.25837 6.45153
1 -7.45485 -3.34862 3.61646
1 -8.13639 -3.88006 3.27006
1 -8.48051 -4.77729 2.89409
1 -8.04168 -5.64323 2.8026
1 -8.8438 -5.64893 2.2973
1 -8.46416 -4.97791 1.73923
1 -7.70383 -4.43327 2.21989
1 -7.04993 -3.80579 1.90406
1 -6.15295 -3.67257 1.69093
1 -6.31034 -3.61885 0.699206
1 4.86451 -2.30366 -9.03375
1 4.33434 -1.81728 -9.62699
1 5.21287 -1.33387 -9.59981
1 4.95005 -0.909804 10.2854
1 4.46756 -0.569589 9.50453
1 3.89474 -0.485483 10.2251
1 3.27429 -0.560078 9.5565
1 2.88076 -1.41122 9.73539
1 2.23883 -0.797122 9.5657
1 1.31221 -0.477208 9.50601
1 -8.07132 6.14113 -9.58089
1 -7.70548 6.03913 10.1933
1 -8.00669 6.95076 10.301
1 -7.93027 7.12627 -9.41045
1 -7.38772 7.73985 -9.86621
1 -7.08835 8.19293 -9.04923
1 -6.77908 8.70177 -8.35221
1 -5.84912 8.45178 -8.33657
1 -5.08839 9.0439 -8.27126
1 -5.30312 8.70706 -7.41713
1 -2.017 -8.46875 -9.49458
1 -2.74793 -9.00158 -9.57896
1 -2.88857 -8.27007 -10.1855
1 -2.21744 -8.61159 9.93118
1 -1.98691 -9.46518 -10.2935
1 -1.85278 -9.71043 -9.41948
1 -1.06486 -9.39999 -9.90066
1 -1.29336 -8.90856 -9.04426
1 -1.63318 -8.72847 -8.15021
1 -2.40306 -8.26821 -8.46606
1 3.24095 -10.1566 -2.57178
1 2.66387 -9.45406 -2.83495
1 2.48093 -8.54313 -2.60326
1 1.98569 -8.43766 -3.4027
1 1.15382 -8.75193 -3.59382
1 1.19412 -7.82993 -3.71148
1 1.41532 -7.00621 -4.05902
1 1.71533 -7.50927 -4.82238
1 2.41293 -6.81203 -4.55487
1 2.65735 -7.51944 -5.2619
1 7.06526 -0.388222 -8.90176
1 7.73429 -0.470746 -9.55182
1 7.84596 -1.33487 -9.98883
1 8.61222 -1.74672 -10.2989
1 8.51818 -2.36279 -9.62866
1 9.18053 -2.38697 -9.0269
1 9.29999 -2.90557 -8.14727
1 8.40931 -3.02441 -7.7322
1 8.61829 -2.10962 -7.70965
1 9.27253 -1.76573 -7.10621
1 2.3288 -2.26162 5.46471
1 3.21441 -2.48382 5.21878
1 3.04789 -1.89876 4.50751
1 2.29606 -1.40253 4.83322
1 3.18723 -1.26713 5.29925
1 3.16573 -0.843776 4.47371
1 3.94044 -0.598772 3.95463
1 4.07396 -1.53342 4.05245
1 4.16465 -1.61255 5.01818
1 4.1673 -2.4631 4.57769
1 6.23081 7.91898 -1.60234
1 5.34538 7.80081 -1.24394
1 5.41013 7.11066 -1.89831
1 5.23963 6.65878 -2.72059
1 5.17058 5.9733 -2.01579
1 5.04952 5.44686 -1.22387
1 4.87438 5.05806 -0.421844
1 4.10308 5.03602 0.084199
1 3.95253 4.45353 0.821922
1 4.2063 5.28387 1.2406
1 9.79182 0.385011 -0.774924
1 9.66615 0.808587 0.085855
1 8.85863 0.345636 -0.117429
1 8.56155 -0.0721396 0.661394
1 9.08268 0.735817 1.00514
1 9.18863 1.68351 0.82536
1 9.24338 2.59597 1.03373
1 8.43133 2.78564 1.55565
1 8.03019 2.91575 0.641165
1 7.59499 3.80982 0.552886
1 -4.8897 7.36055 -5.85398
1 -4.10711 6.73178 -5.8624
1 -4.71412 6.42612 -6.57669
1 -5.23803 6.20089 -5.83489
1 -4.46261 6.05843 -5.18336
1 -4.60297 6.97115 -4.85803
1 -4.11643 6.35832 -4.27508
1 -4.80354 5.68482 -4.21277
1 -5.25704 4.87508 -4.11228
1 -4.46366 4.86652 -3.58525
1 1.8484 -4.04901 -3.1209
1 1.53423 -4.62327 -2.44233
1 0.640668 -4.34973 -2.2835
1 0.678477 -5.22231 -2.08622
1 0.800709 -4.75365 -1.27065
1 1.40451 -4.12451 -0.750817
1 0.889644 -3.94472 0.0700158
1 1.16922 -4.91506 0.107177
1 1.83636 -5.52551 0.50087
1 0.965256 -5.6689 0.955621
1 2.16253 8.20105 9.9524
1 3.11113 8.05855 10.1325
1 3.2808 8.10473 9.23209
1 4.19103 8.13016 8.91172
1 4.19474 8.14706 7.94246
1 4.03143 7.2948 8.30408
1 3.71204 7.21675 7.45572
1 3.70006 6.92015 6.51552
1 3.34886 6.97082 5.63673
1 3.42692 7.85071 5.37204
1 -3.08734 3.80559 5.97828
1 -3.7868 4.50729 6.25729
1 -4.42415 4.25651 6.84261
1 -4.65186 3.60404 7.52848
1 -5.39337 4.09718 7.23212
1 -4.9677 4.5186 7.96875
1 -5.46555 4.77531 8.70437
1 -5.12272 5.43169 9.35416
1 -4.57776 5.33541 10.1732
1 -4.87408 6.2472 10.0554
1 -5.85118 3.86107 2.16684
1 -5.70721 2.90804 1.83433
1 -6.63125 2.78082 1.81661
1 -6.80824 3.32058 2.62877
1 -6.82846 3.74197 3.55478
1 -6.84125 4.72737 3.54288
1 -6.69862 4.47085 2.63385
1 -7.0875 4.06402 1.86545
1 -7.88333 3.54058 1.93164
1 -7.72862 3.89103 2.78391
1 5.20219 -7.7402 -5.06799
1 4.41424 -7.85055 -4.52775
1 4.4279 -7.00504 -5.09052
1 3.47853 -6.75718 -5.07231
1 3.31232 -7.01435 -5.98265
1 2.4687 -6.63535 -5.77291
1 2.22948 -5.73621 -5.84963
1 2.41581 -5.7663 -4.95903
1 2.92592 -5.8929 -4.15038
1 3.43315 -5.85823 -3.38986
1 -7.46677 -3.67596 8.06157
1 -8.17454 -3.08384 7.66441
1 -8.42686 -3.53214 8.44221
1 -8.45498 -3.86365 9.31967
1 -7.65099 -3.53433 9.77708
1 -7.57408 -2.64585 10.2032
1 -7.28393 -1.74168 10.1882
1 -7.17747 -1.3433 -9.61616
1 -6.66779 -1.65127 -8.85213
1 -6.55889 -1.79115 -7.93467
1 -3.21852 -1.30697 2.22744
1 -3.48916 -0.525402 2.72206
1 -3.21223 0.396164 2.97476
1 -3.15231 0.789586 3.81177
1 -4.03425 1.06991 3.63274
1 -4.08347 0.134051 3.43081
1 -4.26686 -0.552747 4.07101
1 -4.41646 0.238185 4.58721
1 -3.52014 0.00438594 4.55
1 -3.56913 0.945071 4.79233
1 3.21362 3.64068 6.49111
1 4.03882 3.38788 6.81754
1 4.63758 2.74333 7.08344
1 5.56603 2.82326 7.3411
1 6.19689 3.3945 6.96473
1 5.49781 3.49883 6.29522
1 6.37237 3.55257 5.91419
1 5.74775 3.51873 5.18453
1 5.56408 2.70607 5.67989
1 4.89258 2.36972 5.08693
1 -9.70291 -3.54521 7.62217
1 -9.08737 -2.89502 7.17351
1 -8.36698 -2.68139 6.57684
1 -8.89974 -2.95803 5.82287
1 -8.18821 -2.48244 5.47372
1 -8.9174 -1.9387 5.29372
1 -9.18394 -2.76138 4.88026
1 -9.42217 -3.65056 4.62189
1 -9.12095 -3.31404 3.76464
1 -9.09971 -4.33237 3.70378
1 -6.6873 -0.33529 -8.83365
1 -7.09473 0.244962 -8.12999
1 -7.69125 -0.472423 -8.4713
1 -8.26696 0.239464 -8.00016
1 -7.71032 -0.0477057 -7.28026
1 -8.42521 -0.787455 -7.46993
1 -9.18008 -0.237464 -7.67126
1 -9.42639 0.659339 -7.4328
1 -10.0116 0.241335 -6.8925
1 -10.1351 0.258099 -5.94826
1 -1.98449 6.3696 -8.98248
1 -2.9275 6.34763 -9.01597
1 -3.05882 6.31519 -8.03296
1 -2.50204 6.09279 -7.28196
1 -1.64826 6.37825 -6.95917
1 -0.776059 5.7886 -6.93742
1 -0.911637 4.85287 -6.73983
1 -1.17259 3.97318 -6.53254
1 -0.837448 3.72406 -7.38858
1 -1.34874 3.11939 -7.92451
1 9.25978 7.79289 -6.77424
1 9.71018 7.03966 -6.48271
1 10.3367 7.764 -6.36895
1 -9.87588 7.16421 -5.8068
1 -10.2796 6.41614 -5.49647
1 10.0753 5.58083 -5.72001
1 10.2812 6.04957 -6.53227
1 -9.81252 6.63644 -6.95694
1 -9.24917 6.18049 -6.31837
1 -8.43902 6.50837 -6.73626
1 1.50425 9.7881 1.90937
1 1.86483 10.2404 1.07714
1 2.53586 9.78915 0.571635
1 3.25708 9.64193 1.21085
1 3.27549 8.74785 0.959995
1 3.68168 7.90094 0.703122
1 4.40776 7.31801 0.560443
1 3.92897 6.65934 1.29899
1 4.71885 6.28887 0.84063
1 3.94209 6.16811 0.326533
1 6.89504 -4.69801 -7.20128
1 6.07964 -4.89146 -7.62211
1 5.44072 -4.1706 -7.6604
1 5.35943 -4.30776 -8.5775
1 6.04122 -4.65443 -9.1715
1 5.82631 -3.86767 -9.67199
1 5.7248 -2.88372 -9.6706
1 5.99432 -2.00848 -9.99891
1 5.97357 -1.12285 10.3192
1 6.405 -0.484741 -9.85791
1 9.98344 -5.29269 -3.95127
1 9.90206 -6.27243 -3.86984
1 9.62578 -6.80037 -4.61654
1 10.1156 -7.39188 -4.01966
1 -9.98734 -7.44385 -3.2737
1 -10.2209 -7.21652 -2.34029
1 -10.1667 -6.62194 -1.53069
1 -9.77395 -7.48944 -1.41879
1 -8.85306 -7.55584 -1.13731
1 -8.94979 -8.26082 -1.88613
1 0.499299 -0.718989 -4.65847
1 0.197403 -1.56962 -4.34125
1 -0.207323 -2.44302 -4.34134
1 -0.252892 -3.18186 -3.76274
1 -0.694529 -3.99057 -4.28454
1 -0.0787312 -4.53249 -3.85674
1 -0.45508 -4.88431 -4.66897
1 0.301979 -4.26922 -4.75162
1 0.820929 -3.77125 -4.0299
1 0.601406 -3.28139 -4.82705
1 -1.34493 4.0242 6.5832
1 -1.3125 4.08086 7.54066
1 -1.09465 3.6567 8.35816
1 -1.56913 4.44237 8.48614
1 -2.44168 4.69945 8.30638
1 -2.42446 4.7975 9.27181
1 -2.31374 4.89101 10.1733
1 -3.15729 4.79346 -10.0541
1 -2.85846 5.68725 -9.81736
1 -1.9603 5.41145 -9.592
1 8.65088 4.77674 0.11866
1 8.39472 3.85654 -0.0233519
1 9.01839 3.16524 -0.0476331
1 9.34034 3.66017 -0.839699
1 10.1163 4.1483 -0.584969
1 9.58663 4.12097 0.231781
1 8.87805 4.02299 0.996326
1 9.39818 3.51223 1.65354
1 9.33671 3.81544 2.54363
1 10.1898 4.15536 2.35383
1 6.12155 -2.17219 0.507498
1 6.37464 -1.7961 -0.335423
1 6.45409 -2.77651 -0.477627
1 7.15618 -2.52443 0.0816285
1 7.73866 -2.7224 0.840429
1 6.80786 -2.65566 1.01287
1 6.65691 -3.57325 1.24509
1 7.52292 -3.89033 1.42045
1 6.85666 -4.59252 1.49939
1 6.70741 -5.43069 2.02344
1 -6.53646 6.4053 -1.00235
1 -6.71628 7.34135 -0.977605
1 -7.54028 7.85407 -0.96254
1 -7.793 7.15104 -1.56788
1 -8.43142 7.79304 -1.93144
1 -8.89044 8.45954 -2.35016
1 -8.97037 8.43049 -1.40268
1 -8.90626 9.35498 -0.999113
1 -9.69732 8.92697 -0.512443
1 -9.69494 8.61811 0.446826
1 -2.93736 2.08427 -3.22754
1 -3.71918 1.5908 -3.35554
1 -4.20517 2.44839 -3.06915
1 -4.76435 2.27653 -3.83293
1 -5.63933 2.71883 -3.88652
1 -6.38844 3.27739 -4.04727
1 -6.02104 3.06613 -4.90946
1 -5.84254 2.14012 -4.70852
1 -5.7039 1.70197 -3.86573
1 -6.30971 1.26443 -4.46017
1 2.68656 7.06073 9.98408
1 3.6416 7.12235 9.6593
1 4.15732 7.83468 10.0107
1 4.49199 6.99443 -10.2145
1 3.6667 6.59346 -10.1004
1 4.36415 5.87214 -10.0937
1 4.02321 6.21078 9.73255
1 3.62964 5.40477 9.32243
1 3.84384 6.18485 8.67297
1 3.04906 5.65793 8.48342
1 -2.76894 0.821216 -8.05255
1 -3.43236 1.23826 -7.41048
1 -2.75743 1.02665 -6.80214
1 -3.40416 1.52355 -6.30688
1 -4.08009 2.16166 -6.31073
1 -4.99685 2.20398 -5.91769
1 -5.90895 2.35902 -5.75852
1 -6.6136 1.84754 -5.42242
1 -6.9831 2.49869 -4.8249
1 -6.65833 2.14408 -3.99665
1 -3.13482 8.54016 6.49259
1 -2.58996 7.7986 6.29966
1 -1.68955 8.08467 6.39571
1 -1.07208 7.3076 6.03786
1 -1.79698 6.81314 6.32495
1 -2.5461 6.20274 6.00921
1 -2.73195 5.85301 6.86384
1 -2.83119 5.08139 6.26652
1 -1.99666 4.8487 6.74423
1 -2.61798 4.08303 6.76922
1 4.11749 -4.94683 -0.718818
1 3.94017 -4.58985 -1.58055
1 3.58234 -3.72759 -1.78572
1 3.91604 -2.95947 -2.29159
1 3.04046 -3.31595 -2.58941
1 2.77252 -3.38706 -3.53281
1 2.60705 -4.17887 -4.0359
1 3.2609 -4.77757 -3.64538
1 3.74029 -4.21573 -4.21076
1 4.63255 -4.09195 -3.76723
1 -3.42485 1.92718 8.61306
1 -3.98257 1.35277 8.08163
1 -3.0268 1.27909 7.88549
1 -3.39029 0.402689 7.8928
1 -4.21634 0.308234 8.32893
1 -4.77376 -0.150934 7.69362
1 -4.09194 -0.864816 7.72714
1 -3.15725 -0.787378 7.44126
1 -2.73769 -1.30588 6.80457
1 -3.59582 -1.59992 6.56618
1 0.658803 -8.20839 1.44195
1 0.509531 -9.14173 1.14694
1 0.839541 -9.98114 0.965334
1 1.01588 -9.88432 1.90194
1 0.929236 -9.41057 2.73827
1 1.60337 -9.57735 3.36908
1 1.91345 -10.1121 2.67753
1 1.55906 9.71485 3.07308
1 2.1517 9.46245 3.78591
1 3.01457 9.94158 4.0362
1 6.77234 -5.11758 5.81558
1 6.66476 -5.93105 6.35847
1 7.58795 -5.81452 6.73815
1 8.08054 -6.02965 7.52515
1 8.79137 -6.72808 7.52638
1 8.31818 -7.54853 7.2565
1 9.27919 -7.77413 7.08437
1 9.94153 -8.16917 7.63541
1 -10.0447 -8.80664 7.86627
1 -9.51325 -9.15266 8.68715
1 5.30277 -7.39158 3.27286
1 4.79468 -6.92089 3.95096
1 5.44998 -6.44581 3.45711
1 5.77403 -5.87318 2.74193
1 4.97544 -6.09462 2.30297
1 4.53014 -6.03015 3.1691
1 5.00291 -5.60227 3.90793
1 4.16261 -5.86928 4.23573
1 4.18165 -4.85101 4.40632
1 3.50906 -4.36821 3.95048
1 -7.34514 -4.99951 1.28798