8000
Atoms. Timestep: 0
1 2.7185 9.68868 4.18583
1 1.88967 9.67561 3.72191
1 1.72137 10.4495 4.26679
1 1.33298 9.60122 4.60261
1 0.516596 9.57159 5.06355
1 -0.299633 9.74741 4.69795
1 -0.865794 8.96496 4.57813
1 -0.346578 8.9013 5.39537
1 0.0806748 8.93042 6.23687
1 -0.337721 9.88715 6.317
1 -3.85555 6.91187 -8.65346
1 -3.64778 6.33182 -7.97793
1 -4.22381 5.59752 -8.32606
1 -3.81691 4.7878 -8.05644
1 -3.49422 3.94049 -7.66343
1 -4.44395 3.88547 -7.86162
1 -5.15104 3.32204 -7.74359
1 -4.72095 3.63156 -6.92793
1 -3.75992 3.76146 -6.54341
1 -3.14009 3.18908 -7.01985
1 -3.59623 -7.85285 2.33585
1 -2.79736 -7.51125 2.76175
1 -2.36555 -7.83683 1.97284
1 -3.0012 -7.89241 1.21183
1 -2.22819 -8.21228 0.792766
1 -2.81634 -8.94423 0.847096
1 -3.59814 -8.85486 0.36633
1 -3.25683 -9.74761 0.2755
1 -3.30192 10.3617 0.815337
1 -3.0024 10.0655 -0.0244833
1 -4.79835 5.78991 4.76382
1 -5.05072 4.92576 5.23331
1 -5.84425 4.58346 5.62278
1 -6.08711 4.57825 4.67486
1 -7.0213 4.84793 4.42175
1 -6.9061 4.65648 5.34691
1 -6.47718 5.54675 5.47549
1 -5.90958 5.7123 4.75217
1 -6.75034 5.87637 4.38202
1 -7.6455 6.20893 4.51666
1 -8.29181 10.3232 -3.0625
1 -8.61513 -10.0278 -2.44592
1 -8.49584 -9.07077 -2.50889
1 -8.03217 -8.96716 -1.68638
1 -8.71296 -9.04548 -1.07029
1 -8.7863 -8.07106 -1.08526
1 -8.07977 -7.35673 -1.01542
1 -8.42225 -7.4463 -0.130308
1 -7.60803 -6.95238 0.127393
1 -8.23443 -7.01087 0.8912
1 5.13314 4.10377 -5.49362
1 5.05704 3.58003 -6.31833
1 4.09989 3.53539 -6.27407
1 4.17278 3.92299 -7.1297
1 4.7516 3.61525 -7.82725
1 4.75001 3.36633 -8.75429
1 5.48561 4.02306 -8.93508
1 5.48634 4.4138 -9.7749
1 5.8858 4.49262 10.2727
1 5.54672 3.62395 10.4661
1 -7.14806 -0.514673 1.58245
1 -6.52729 -0.0788757 2.1406
1 -5.93019 -0.145171 1.41775
1 -5.3129 -0.411779 0.768777
1 -4.39026 -0.699366 0.879263
1 -4.09837 -1.66999 0.577864
1 -4.89189 -1.6278 1.13092
1 -5.17621 -2.15208 1.87717
1 -4.83517 -2.99742 2.28184
1 -4.91743 -3.83084 2.71136
1 5.84372 2.77424 1.27669
1 5.43974 3.54146 0.699464
1 4.68349 3.99348 0.397601
1 4.56406 4.9322 0.338936
1 4.23966 4.47999 -0.478109
1 3.65606 4.322 0.228614
1 3.5339 5.14703 0.632916
1 4.0233 4.65083 1.43115
1 4.46664 5.52721 1.3114
1 3.71846 5.62723 1.9598
1 5.41519 0.319951 -3.09616
1 4.94699 -0.544882 -2.91082
1 4.27436 -1.12789 -2.67001
1 4.07665 -0.717594 -3.50742
1 3.85599 0.127106 -3.16034
1 3.54755 1.01592 -3.39329
1 4.48913 0.82814 -3.54914
1 5.24744 0.806555 -4.17507
1 4.36265 0.831876 -4.59859
1 3.98649 0.370006 -5.31078
1 8.08166 7.34824 1.50586
1 8.86835 6.91005 1.20959
1 8.0878 6.87894 0.609765
1 7.77757 6.09506 0.258405
1 7.01163 6.29064 -0.388034
1 7.28233 6.96838 0.215855
1 7.58627 7.72031 -0.475648
1 7.92086 6.87012 -0.707744
1 8.64903 7.29932 -0.19024
1 8.74737 6.34682 -0.0406677
1 2.90966 2.52792 2.32097
1 3.5838 2.91574 1.71758
1 4.09844 3.64144 1.89482
1 4.73637 3.1952 1.37016
1 4.50092 2.79743 0.538748
1 3.68418 3.3855 0.708143
1 2.94464 3.82821 1.07336
1 2.65625 4.12415 0.16577
1 2.02762 3.54722 0.759284
1 2.70533 3.07884 0.337896
1 1.07554 -3.21952 9.16555
1 1.12703 -2.55372 9.83429
1 1.07029 -2.11852 9.00474
1 1.9477 -2.56095 9.02276
1 2.49185 -1.82201 9.22499
1 2.59361 -1.45615 10.1345
1 2.14448 -1.76189 -10.0047
1 2.28655 -1.75823 -9.05639
1 3.01328 -1.59022 -8.52724
1 3.91494 -1.89676 -8.58059
1 -1.13135 -9.23139 4.83209
1 -1.37152 -8.6102 5.49913
1 -0.978325 -8.00738 4.94324
1 -1.0085 -7.35224 4.24398
1 -1.52017 -6.61312 4.62669
1 -2.07939 -7.43356 4.67867
1 -1.90332 -7.0765 3.8014
1 -2.65112 -6.50417 3.58516
1 -2.93251 -7.27775 4.10621
1 -3.33877 -7.67119 4.93173
1 9.20033 4.02386 5.73946
1 9.00448 4.23403 6.64561
1 8.31243 4.6897 7.10921
1 8.81654 4.85357 7.92738
1 9.07808 5.77039 8.19884
1 8.8516 5.47621 9.06992
1 8.2453 5.95036 9.6823
1 7.59807 5.18782 9.68557
1 7.90821 5.27789 8.80714
1 8.13901 6.01114 8.223
1 -5.90628 1.20165 -3.10332
1 -5.941 1.82939 -2.35789
1 -6.56055 1.95489 -3.08961
1 -5.66768 2.21322 -3.28625
1 -5.50009 2.92465 -2.68813
1 -6.13775 3.23984 -3.34074
1 -6.39004 4.1261 -3.03425
1 -6.00413 4.89814 -3.36308
1 -6.86894 5.16669 -3.72222
1 -6.88507 5.79813 -4.45633
1 -5.75406 8.86379 9.41688
1 -5.49494 9.70707 9.03348
1 -4.71089 10.3165 9.09402
1 -5.26651 -10.4566 9.83582
1 -6.17774 -10.2235 10.0944
1 -6.50929 9.89614 10.2448
1 -5.86442 10.1486 -10.063
1 -4.88522 10.1369 -10.2532
1 -5.4626 9.42022 10.3065
1 -5.52848 8.4842 10.4474
1 1.27113 -9.30293 0.0372961
1 1.64841 -10.1791 0.0277143
1 1.69523 9.8323 0.145865
1 2.52053 9.57874 -0.11127
1 2.60548 10.4177 -0.533164
1 2.71818 -10.3617 0.376329
1 3.0797 9.75145 0.819252
1 3.83252 10.0075 1.37911
1 3.75838 9.36273 2.11228
1 3.28008 8.73188 1.69266
1 -0.94901 -6.9726 7.99141
1 -1.14232 -7.2009 8.88117
1 -1.79756 -7.64754 9.46658
1 -1.26946 -7.88703 10.2673
1 -0.604421 -7.2811 -10.215
1 -0.466261 -6.93806 9.86647
1 -0.634995 -6.25255 9.23825
1 -0.155966 -5.99622 8.41879
1 0.265722 -5.22143 8.78357
1 0.733308 -4.38037 8.55271
1 -7.52035 3.76735 6.27996
1 -8.36515 3.23224 6.05972
1 -8.07532 2.84927 6.8649
1 -9.01329 3.08626 7.00378
1 -8.98567 2.74648 7.89716
1 -8.15339 2.39517 8.25207
1 -7.83673 1.5638 8.5208
1 -7.13575 2.25038 8.35693
1 -6.64796 1.47116 8.1629
1 -5.81845 1.85814 7.80557
1 -2.34883 -9.26646 2.05669
1 -2.6335 -8.62296 2.70745
1 -3.2384 -8.41733 3.40453
1 -3.37247 -9.3578 3.36928
1 -3.10452 -9.94201 2.67721
1 -3.21543 10.2153 3.23126
1 -2.67093 -10.1542 3.77466
1 -2.03592 -9.65393 3.24267
1 -1.23276 -9.97865 2.87517
1 -1.46691 -9.07329 2.58256
1 2.9947 8.15966 0.341567
1 3.39054 7.88931 1.15022
1 3.29173 7.09477 0.581374
1 3.88442 7.6256 0.0553814
1 3.52136 8.13146 -0.760176
1 2.82131 8.01213 -1.43633
1 3.57577 8.01268 -1.99695
1 2.66658 8.09161 -2.50271
1 1.87804 7.67243 -2.92584
1 2.57665 7.70303 -3.59552
1 3.23822 10.0298 -9.3096
1 3.10853 9.46876 -8.52663
1 2.48503 9.56914 -7.83345
1 2.84673 10.1761 -7.19022
1 3.25591 10.2196 -6.29208
1 3.72588 -10.4478 -5.48282
1 3.54457 10.2674 -4.52263
1 2.98166 -9.96817 -4.91705
1 2.445 -9.25841 -5.31336
1 2.824 -9.78282 -6.07677
1 -6.56813 -6.4916 -0.0522593
1 -7.2966 -5.82878 0.196789
1 -7.31892 -5.17628 0.826374
1 -6.55829 -4.85015 0.434587
1 -5.93453 -4.97512 1.11549
1 -6.01748 -5.81104 0.772291
1 -5.38789 -5.35911 0.270374
1 -6.01902 -5.64545 -0.440385
1 -6.36967 -5.86368 -1.27519
1 -6.04307 -6.61519 -1.67357
1 10.1853 -10.4367 3.57325
1 10.3788 -10.0288 2.7689
1 -10.4766 -9.02765 2.59057
1 10.3507 -9.02554 3.52505
1 9.47358 -9.0122 4.00023
1 9.30983 -9.84811 4.46206
1 8.42624 -9.49135 4.76028
1 8.45848 -10.3464 4.33765
1 9.1776 10.0861 4.02193
1 8.93395 10.2924 3.09303
1 2.47944 1.93142 -7.40556
1 2.2757 1.676 -6.49908
1 1.37678 2.08771 -6.40448
1 1.1306 2.53779 -5.62724
1 1.58016 3.20008 -5.08992
1 0.785406 3.75292 -5.30651
1 0.138304 3.91521 -4.61553
1 -0.187418 4.72697 -4.27315
1 -0.569059 4.29276 -3.53104
1 -0.911251 3.7422 -4.23117
1 1.25376 -10.3696 5.70251
1 1.48167 -9.64357 6.27686
1 2.16777 -9.86668 6.94506
1 1.77269 10.2581 6.72817
1 2.50496 10.0575 6.17163
1 3.2829 9.56513 6.10235
1 3.93171 9.22719 6.7522
1 4.256 8.70454 5.94085
1 3.39072 8.65701 5.52387
1 3.68842 7.7722 5.39155
1 6.09504 4.07686 6.06347
1 6.97898 3.76152 5.68737
1 6.67937 4.42724 5.0869
1 7.00734 4.89067 4.29555
1 6.99681 5.79029 3.89252
1 6.94165 5.86752 4.81316
1 7.50849 5.24625 5.30724
1 6.97384 4.87805 5.99563
1 6.47877 5.75629 5.98472
1 6.90661 6.50872 6.325
1 3.51128 -6.51596 -3.89249
1 2.81994 -6.51987 -4.58232
1 3.16223 -7.33922 -4.34923
1 2.49431 -7.72476 -4.98419
1 2.49063 -8.48514 -4.44412
1 1.68548 -8.64472 -4.94464
1 0.892573 -9.09418 -4.56861
1 0.69157 -8.22311 -4.92764
1 0.583892 -7.97163 -5.85796
1 1.18686 -8.6932 -6.10303
1 -7.31774 8.64257 -7.03014
1 -7.59778 7.92765 -6.44065
1 -7.89106 8.77211 -6.13835
1 -8.19152 9.65494 -5.91929
1 -7.49033 9.9457 -5.28845
1 -8.00529 10.2731 -4.5465
1 -8.53399 9.52487 -4.90116
1 -8.75742 8.64078 -4.57537
1 -8.1115 8.25414 -5.10004
1 -7.87429 7.38163 -5.4117
1 3.64876 -0.149043 3.68836
1 3.48249 -0.694825 4.51002
1 3.82837 0.200036 4.76734
1 4.52118 -0.457911 4.68855
1 4.89468 0.118726 5.39141
1 5.21588 -0.761732 5.5245
1 5.79942 -1.46254 6.05803
1 6.32835 -2.23095 5.63134
1 6.41402 -2.57916 6.50676
1 7.19168 -2.01463 6.36651
1 1.04642 -4.45145 9.65109
1 1.82806 -3.9176 9.67513
1 2.28037 -3.3002 10.2491
1 3.06012 -3.58581 9.92643
1 2.68986 -4.32994 9.54113
1 2.17365 -5.0976 9.92381
1 2.14001 -5.89737 -10.483
1 3.02431 -5.95234 10.1128
1 3.9622 -6.08102 9.94476
1 3.59148 -6.92719 10.1253
1 3.36434 -1.77963 -3.27374
1 3.22618 -2.69236 -3.07984
1 2.63761 -3.43547 -3.10249
1 2.15516 -3.99881 -2.46123
1 2.79626 -4.74019 -2.27167
1 3.40267 -4.38286 -2.91802
1 4.22753 -4.05003 -3.27747
1 4.17655 -3.35637 -2.59133
1 5.03759 -3.64343 -2.63487
1 5.72577 -4.17154 -2.23805
1 10.3511 7.73947 -4.215
1 9.66347 7.02272 -4.29053
1 9.90486 6.8742 -3.40178
1 9.36493 7.20739 -2.64372
1 9.60338 6.79125 -1.78965
1 9.02255 6.22861 -2.32585
1 8.48767 5.60184 -1.8402
1 7.80148 5.32663 -2.41196
1 6.99552 5.96749 -2.28338
1 6.34413 5.33729 -2.6031
1 3.15956 -0.322462 5.44934
1 2.30168 -0.510539 5.13362
1 2.27127 -1.10772 4.38538
1 1.64598 -0.354803 4.00522
1 1.77536 0.624736 3.86978
1 2.40823 0.385786 4.56376
1 2.36678 1.42614 4.40159
1 3.2087 1.09117 4.12285
1 3.44271 1.73434 4.79605
1 2.98561 2.49027 4.42792
1 7.72584 -1.34139 -2.84939
1 6.79031 -1.35653 -2.73829
1 6.20025 -1.9723 -2.29329
1 6.15583 -2.20238 -3.18675
1 6.88974 -2.02237 -3.72192
1 7.24738 -2.34542 -2.8302
1 7.05104 -2.93513 -2.14545
1 6.1349 -3.05631 -2.13808
1 6.05476 -2.53239 -1.28584
1 6.58043 -3.33292 -1.21386
1 -6.67167 -3.35692 3.03596
1 -5.88084 -3.45474 2.53542
1 -6.51658 -4.11146 2.24248
1 -7.03686 -4.38515 1.47864
1 -7.33017 -3.55335 1.09652
1 -7.62293 -2.65714 1.43387
1 -7.82235 -2.06636 0.680271
1 -8.77159 -2.12579 0.575825
1 -8.70304 -1.24963 0.385205
1 -9.56289 -0.892685 0.567222
1 -2.60443 -4.80484 5.01096
1 -1.80099 -4.84816 5.52646
1 -1.72511 -5.83572 5.55202
1 -1.99082 -6.78872 5.5935
1 -1.55579 -7.61603 5.73999
1 -2.21247 -7.95106 6.37593
1 -2.85535 -7.57785 5.80793
1 -3.17859 -6.69114 6.064
1 -2.73878 -5.8324 5.93375
1 -3.6166 -5.70985 6.28755
1 0.0417008 0.979921 -2.9375
1 0.771245 1.39995 -2.4709
1 0.57797 1.71251 -1.61993
1 0.21607 0.859731 -1.714
1 -0.0629908 -0.0522431 -1.95911
1 -0.165899 -0.912978 -1.49398
1 -0.0523547 -1.82321 -1.28099
1 -0.202215 -2.2088 -2.15167
1 -0.732364 -2.91555 -1.79192
1 -0.41978 -2.81522 -0.913858
1 10.4419 -3.76093 -5.50004
1 -10.3236 -4.23733 -6.3401
1 -9.48357 -4.7621 -6.65591
1 -10.2571 -4.92651 -7.20331
1 9.94316 -5.21245 -7.76546
1 9.28535 -5.71215 -8.19962
1 9.55737 -6.20202 -9.033
1 9.06648 -6.82442 -8.55197
1 9.82547 -7.462 -8.53145
1 9.51803 -7.15784 -9.38562
1 9.50025 -1.08881 -8.49593
1 9.39598 -0.171747 -8.19102
1 9.19588 0.296075 -9.0324
1 9.91693 0.669734 -8.56482
1 -10.1395 0.919851 -8.79264
1 -9.92697 0.543308 -7.9156
1 -9.83148 -0.296033 -7.46059
1 -9.08187 -0.269025 -6.87749
1 -8.94763 0.504511 -7.46989
1 -8.52086 1.31137 -7.17079
1 3.87188 5.48725 -0.543215
1 3.61264 6.38922 -0.307321
1 3.91273 6.11834 0.580345
1 3.88229 6.58293 1.44645
1 3.29137 6.65071 2.247
1 2.70211 7.23678 1.5694
1 3.18159 7.73662 2.19115
1 2.76255 8.46309 2.64162
1 2.64015 8.5336 3.55511
1 3.03339 9.29169 3.11377
1 4.95379 -3.35577 -0.117132
1 5.61371 -3.9267 -0.623789
1 6.04269 -4.51907 -1.24576
1 6.75338 -4.36114 -0.511609
1 7.11787 -4.38562 0.34594
1 7.81638 -4.1614 0.88647
1 8.09035 -4.97557 0.343794
1 8.54556 -5.25418 -0.429019
1 7.61646 -5.02373 -0.570108
1 7.05121 -5.50949 -1.21576
1 6.18189 9.71312 10.1808
1 6.35454 8.97631 -10.2612
1 6.61303 8.4578 9.97696
1 7.18343 7.96593 9.32312
1 7.66763 8.81693 9.59855
1 7.3526 9.49953 10.2138
1 8.23777 9.77394 10.2207
1 8.00656 10.437 9.55018
1 8.96379 10.1756 9.60725
1 9.81944 9.80829 9.89478
1 4.33083 -6.66174 -6.92677
1 4.11059 -6.33064 -6.07593
1 4.76223 -7.06235 -6.10768
1 5.04481 -6.37242 -5.39621
1 5.02206 -7.17596 -4.86064
1 4.42589 -6.41693 -4.59897
1 3.81851 -7.01681 -5.19669
1 3.10255 -7.22037 -5.80046
1 2.35592 -6.59542 -5.88407
1 2.1922 -6.72726 -6.87263
1 -6.10182 4.29759 9.54277
1 -5.35335 4.76837 9.92818
1 -5.74452 4.65423 -10.1378
1 -6.30148 4.00037 -9.64636
1 -6.14097 3.72208 10.3731
1 -6.78647 3.00164 10.28
1 -7.34935 3.63102 -10.3013
1 -7.86311 3.01685 -9.7654
1 -7.13887 3.34188 -9.18333
1 -6.45429 2.87361 -9.66436
1 -7.41808 3.05043 8.80802
1 -6.54189 2.6846 9.08212
1 -5.86568 3.32485 9.05985
1 -5.7542 2.92094 9.87887
1 -5.30912 2.97895 -10.2965
1 -4.98795 3.75076 -9.84621
1 -4.67548 4.47852 -10.3772
1 -4.7686 3.83693 9.89126
1 -4.46546 2.88119 10.0267
1 -3.83855 3.50576 10.3798
1 -7.22268 5.08691 0.486824
1 -6.55062 5.43644 0.983779
1 -6.31568 5.79426 1.86961
1 -5.79375 6.59169 1.79134
1 -6.71053 6.6421 2.20183
1 -6.15231 6.78926 2.94038
1 -7.09135 6.95661 3.15322
1 -8.05162 7.23351 3.0977
1 -7.60565 8.0548 3.47551
1 -6.88927 8.61645 3.36262
1 -8.56296 9.05196 4.17152
1 -9.15612 9.02111 3.38605
1 -8.80378 9.27299 2.5843
1 -8.04466 9.11885 3.24276
1 -7.891 9.83253 2.53895
1 -6.99552 9.51821 2.59263
1 -6.84996 10.4009 2.10569
1 -6.01038 10.0247 2.61024
1 -5.09265 9.81985 2.53911
1 -4.80757 9.22576 3.24819
1 -6.64213 0.30421 3.09973
1 -6.78144 -0.637807 3.03536
1 -6.28617 -1.37292 3.37937
1 -5.54242 -1.48446 2.78003
1 -4.79234 -0.811861 2.85922
1 -3.94686 -0.934246 3.33593
1 -3.21255 -0.42215 3.16605
1 -2.79395 0.185737 2.46932
1 -2.35579 -0.691935 2.31509
1 -1.60971 -0.225116 1.96054
1 8.27316 -4.59147 -4.56247
1 8.60473 -5.20237 -5.24314
1 9.46988 -5.51968 -4.98717
1 9.26701 -6.4857 -4.9751
1 8.32683 -6.43559 -5.37741
1 7.58623 -6.1059 -5.90403
1 7.00796 -5.6971 -6.55933
1 6.82429 -5.20524 -7.36538
1 6.59444 -4.82291 -8.20028
1 7.30311 -5.2041 -8.74739
1 -9.02494 5.95656 0.285042
1 -8.25048 5.40327 0.115494
1 -8.19139 5.47611 1.10674
1 -9.15066 5.35817 1.36446
1 -8.63995 4.59705 1.72036
1 -8.63259 4.58606 0.721205
1 -8.06384 4.15973 0.0707484
1 -8.09547 3.53021 -0.726797
1 -8.52707 2.67381 -0.790034
1 -9.04065 3.42755 -1.12481
1 -0.140256 3.73862 4.23514
1 -1.00973 4.22894 4.26039
1 -1.22346 4.97688 3.75231
1 -0.450673 5.10866 3.15749
1 0.151086 5.14601 3.91616
1 -0.622513 5.65213 4.0975
1 -0.220212 5.65703 4.96016
1 0.6039 5.91793 4.53281
1 0.648585 5.40398 5.34911
1 0.308848 6.25893 5.64973
1 5.57393 -7.85325 9.66013
1 5.03548 -8.06461 10.3887
1 4.6981 -7.14099 10.1742
1 4.00683 -7.72691 -10.318
1 3.48591 -8.44298 -9.9492
1 3.1511 -7.6375 -9.79435
1 3.70058 -6.99897 -9.36764
1 4.08645 -6.3674 -9.94535
1 4.85034 -6.95807 -9.73262
1 4.47481 -7.732 -9.36132
1 0.456183 -3.91914 -1.04489
1 0.901657 -3.29899 -0.535209
1 1.40115 -3.46422 -1.35519
1 1.60675 -2.55016 -1.31892
1 2.09667 -2.0964 -0.626774
1 1.30999 -1.51658 -0.855568
1 0.666165 -2.06944 -0.408454
1 1.2603 -1.75757 0.333541
1 1.64159 -2.64669 -0.0189619
1 2.28101 -2.07122 0.470222
1 3.80733 -10.0685 5.27328
1 4.31898 -9.73661 4.56343
1 4.81655 -9.91736 5.35216
1 5.47899 -9.81458 5.98433
1 6.28201 -9.52033 6.46613
1 7.15929 -9.05869 6.38346
1 6.76042 -8.24726 6.8141
1 6.36003 -7.98636 5.96154
1 5.61862 -8.25841 5.39077
1 6.17832 -9.02577 5.44988
1 -2.62674 -4.36766 3.67774
1 -3.1814 -3.5999 3.52277
1 -3.17716 -3.86727 4.45866
1 -3.35382 -3.11677 5.05133
1 -2.89012 -3.79214 5.52638
1 -2.83871 -3.21442 6.2735
1 -2.89718 -3.97605 6.85523
1 -2.949 -4.88842 7.06353
1 -3.77114 -4.62427 6.62427
1 -4.13018 -4.0452 5.96383
1 9.64624 8.94328 5.69273
1 9.23136 8.85345 4.84238
1 9.24999 7.85433 4.70074
1 8.9709 7.98278 5.61431
1 9.52869 7.19928 5.67726
1 8.53859 7.0157 5.76112
1 8.24176 6.21853 6.14286
1 9.03193 6.58264 6.57736
1 9.07696 7.56458 6.66752
1 9.80636 8.12872 6.3784
1 6.23475 1.25039 -5.81507
1 5.5006 1.72551 -6.28989
1 5.18498 1.61879 -5.32869
1 5.39703 0.704592 -5.40139
1 5.57421 0.44126 -6.33259
1 5.16174 -0.373229 -6.73026
1 5.55557 -0.898639 -7.46297
1 6.22907 -0.33943 -7.05533
1 7.0873 -0.548638 -6.76986
1 7.72226 -1.06419 -7.28766
1 -6.95736 -6.73296 8.40936
1 -7.76292 -6.39483 8.73853
1 -8.67199 -6.53764 8.57631
1 -9.27709 -5.76013 8.29692
1 -9.42196 -4.81118 8.34653
1 -8.9946 -5.17476 9.18842
1 -8.66206 -4.23806 9.24275
1 -8.60494 -4.07865 8.27106
1 -8.5376 -3.26735 7.64927
1 -8.71115 -2.43807 7.10214
1 9.82278 0.619143 6.69989
1 9.52438 0.181718 7.46112
1 8.6794 0.107165 6.96116
1 8.76406 -0.781579 7.24886
1 8.93766 -0.754964 6.30489
1 8.88163 -0.265135 5.50172
1 9.75278 -0.350567 5.11478
1 10.1708 -0.684295 5.93643
1 9.46976 -1.22128 5.51543
1 8.93509 -1.92445 5.98091
1 8.44377 4.16274 -8.48074
1 7.49684 3.98148 -8.61961
1 6.57834 3.64159 -8.47247
1 7.2162 2.9073 -8.8142
1 7.80452 2.22852 -9.19789
1 7.03189 1.71392 -9.0603
1 7.35932 2.01651 -8.19321
1 6.4341 2.3682 -8.19839
1 6.17671 2.63759 -9.03549
1 6.8639 2.51489 -9.79085
1 -3.68592 10.0163 -6.11817
1 -3.47198 -10.2534 -6.79251
1 -3.39781 10.2239 -7.58701
1 -2.96644 9.58757 -6.99799
1 -2.13468 9.95045 -7.30472
1 -2.3234 10.0438 -6.28929
1 -2.73405 10.4755 -5.54664
1 -2.42005 10.1686 -4.69124
1 -2.15092 -10.3513 -3.87767
1 -2.99532 10.1413 -3.84495
1 4.61736 0.228073 -0.93888
1 4.24097 -0.62449 -0.805066
1 4.13909 -1.22558 -1.55313
1 3.34942 -1.5948 -1.95523
1 3.8802 -2.23905 -1.42965
1 3.36534 -2.77418 -1.99571
1 3.87116 -3.21072 -1.32344
1 4.16349 -2.71132 -0.607782
1 4.95016 -2.25452 -0.936778
1 4.89747 -3.04302 -1.41374
1 9.56315 -7.91855 -2.11741
1 8.7983 -7.53503 -2.56927
1 8.71418 -8.51577 -2.53273
1 8.14466 -9.14563 -3.06923
1 7.2556 -9.47739 -3.27706
1 7.42198 -9.66436 -2.30731
1 7.60294 -9.49704 -1.37106
1 7.95518 -8.66817 -1.79148
1 8.84462 -8.95805 -1.56438
1 8.85828 -9.47879 -2.29859
1 0.174878 -8.61884 7.63095
1 0.480393 -9.55457 7.53086
1 1.02353 -10.1152 7.00728
1 0.334416 -10.2901 6.42711
1 0.0696559 -10.4696 5.51134
1 -0.8103 -10.2773 5.84743
1 -1.37381 -9.63207 6.33324
1 -0.79155 -10.1728 6.98028
1 -1.58273 10.185 7.04862
1 -1.18597 9.44131 6.58888
1 1.30883 6.48592 2.05299
1 1.04842 7.28149 2.51269
1 1.84944 7.82302 2.60675
1 2.14056 6.9214 2.76479
1 2.10428 7.58495 3.54268
1 2.99056 7.4312 3.23904
1 3.72299 7.47228 3.87795
1 3.36643 7.07761 4.62964
1 2.53866 7.25213 5.07321
1 1.83291 7.21793 4.43183
1 1.6878 1.66297 -1.99726
1 1.42452 2.56862 -2.23796
1 1.37883 2.43985 -1.26128
1 1.76935 2.65581 -0.466785
1 1.51259 2.57585 0.461838
1 1.60134 1.61404 0.531942
1 2.24139 1.70678 -0.278043
1 2.88351 2.06452 0.274547
1 2.47904 2.11877 1.13743
1 2.12476 2.86111 1.61374
1 -6.10902 -5.00964 3.63315
1 -5.9358 -5.11689 2.69962
1 -5.54879 -5.74959 2.09282
1 -4.81894 -5.77073 1.37557
1 -3.98047 -6.12015 1.69014
1 -4.75412 -6.5412 2.02426
1 -4.81404 -6.02395 2.81052
1 -5.55144 -6.66662 2.72352
1 -5.41007 -6.90227 3.63383
1 -5.52175 -5.96492 3.55312
1 7.41568 10.1096 -4.22778
1 8.20197 9.86748 -3.77452
1 7.35867 9.33776 -3.55639
1 6.46078 9.3628 -3.91476
1 5.72456 8.83231 -3.61869
1 6.22668 8.82326 -2.7848
1 6.87426 9.50907 -2.68159
1 6.05038 9.8234 -3.04259
1 5.41935 -10.4607 -3.40555
1 4.64107 -9.95642 -3.52741
1 -2.64108 -0.136306 1.36997
1 -2.6291 0.390457 0.573747
1 -1.76077 0.303032 0.9598
1 -0.883364 -0.130834 0.62789
1 -0.750204 0.465298 -0.119566
1 -0.28772 -0.0891352 -0.732753
1 0.404401 -0.0587229 -0.0268021
1 0.280343 0.922988 -0.206031
1 -0.111243 1.619 0.389556
1 -1.00536 1.424 0.149768
1 -1.05909 -0.891256 -4.28249
1 -1.60334 -1.62897 -3.93324
1 -2.03269 -1.7715 -3.03303
1 -1.80699 -0.863779 -3.23745
1 -1.89317 0.024417 -2.92492
1 -1.6681 -0.0497793 -3.8471
1 -1.24431 0.905613 -3.76893
1 -0.875309 0.545568 -2.95207
1 -0.840599 0.991203 -2.09154
1 -1.6867 1.08591 -2.53047
1 -1.40759 2.73734 6.90008
1 -1.5863 2.96807 7.8373
1 -2.44396 3.03192 7.40241
1 -2.43755 2.07931 7.67779
1 -1.49557 1.84452 7.78064
1 -0.590054 2.14794 7.52449
1 -0.543909 3.10815 7.53781
1 -0.737995 3.96321 7.14998
1 -0.738937 3.47114 6.36588
1 -1.55939 3.91503 6.05678
1 -9.85501 5.55077 -4.57838
1 -9.62485 5.08407 -5.46749
1 -9.49276 4.48755 -4.72709
1 -8.65628 5.03549 -4.82381
1 -7.76019 4.88629 -4.50906
1 -7.75827 4.85449 -5.43787
1 -8.12479 4.6055 -6.26604
1 -7.65297 4.04509 -6.82443
1 -8.24678 3.63151 -6.20894
1 -8.7479 4.15827 -5.58938
1 6.6141 4.65251 1.56572
1 6.19094 3.79521 1.58823
1 6.49847 3.47656 0.782834
1 7.1036 4.19932 0.53512
1 6.8256 4.52978 -0.334941
1 5.97107 4.28273 -0.0494154
1 5.54859 4.63803 0.739625
1 6.31886 5.18091 0.512107
1 5.88935 5.40054 1.3776
1 5.13848 4.89688 1.79249
1 1.28404 -5.09187 7.98458
1 0.810479 -4.9054 7.19529
1 1.52841 -4.29131 7.02136
1 1.45138 -3.78978 7.84535
1 2.36231 -3.66519 7.667
1 2.55597 -3.38879 8.55488
1 2.71803 -4.30918 8.48387
1 1.9425 -4.74272 8.82906
1 2.71851 -5.2789 9.12238
1 2.31597 -5.61943 8.28995
1 0.930995 1.73052 -7.27854
1 0.20942 2.31393 -7.50031
1 -0.372881 2.7942 -8.06618
1 -0.879459 3.46704 -8.47194
1 -0.808641 3.50758 -7.49564
1 -1.28975 3.10269 -6.75314
1 -1.90629 3.31003 -6.04348
1 -2.83348 3.53704 -5.93479
1 -2.38118 3.93856 -6.73063
1 -1.45211 4.1433 -6.51286
1 10.4253 -4.42667 -0.120357
1 10.3049 -5.27648 0.446244
1 10.4024 -4.56863 1.07791
1 9.7457 -5.04689 1.48573
1 10.1958 -5.86768 1.22894
1 -10.3456 -6.33765 0.493215
1 -9.63238 -5.75264 0.31173
1 -8.93675 -5.13905 0.679385
1 -9.73642 -5.24777 1.20298
1 -8.98748 -5.20897 1.84173
1 0.561492 -7.35706 -4.1162
1 -0.354008 -7.47603 -3.9231
1 -1.09734 -7.22522 -3.34399
1 -0.845165 -6.39771 -2.98127
1 -1.80215 -6.28921 -2.95117
1 -1.73823 -5.8677 -3.80567
1 -2.32489 -5.34975 -3.2405
1 -2.51672 -4.42786 -3.39415
1 -2.30153 -4.68978 -2.44923
1 -3.12676 -5.18875 -2.38022
1 7.81364 5.942 -7.01991
1 8.00013 5.74521 -6.09598
1 7.25408 5.72289 -5.43918
1 7.25175 6.57803 -5.02725
1 6.83811 7.17275 -4.41855
1 5.94833 6.87821 -4.47987
1 5.90226 7.61631 -3.85745
1 6.17024 7.75585 -2.93493
1 6.66683 7.01779 -2.4994
1 5.96462 7.26607 -1.84857
1 -5.92435 -2.39673 -6.75312
1 -5.23578 -3.12146 -6.92975
1 -5.32088 -3.99403 -6.4882
1 -6.04646 -4.59348 -6.46421
1 -6.8022 -5.20193 -6.4844
1 -6.68152 -5.14136 -5.49494
1 -6.47103 -5.37901 -4.53899
1 -7.28018 -5.17415 -4.05445
1 -7.97268 -5.62236 -3.47676
1 -8.25588 -6.1205 -2.69444
1 -1.85692 -5.78972 1.2094
1 -2.0339 -6.0251 0.321585
1 -2.23648 -5.1739 0.0230388
1 -1.39232 -5.30051 -0.514379
1 -1.0269 -5.81192 0.208247
1 -1.2821 -6.36963 -0.542523
1 -0.727493 -6.89603 0.0568308
1 -1.52838 -7.4914 0.115075
1 -2.18813 -7.14094 -0.50695
1 -2.21286 -6.97686 -1.4262
1 0.0705893 -6.46166 5.36853
1 0.947185 -6.57543 4.73801
1 0.937463 -7.49116 4.9846
1 1.37254 -7.99813 4.23993
1 1.19581 -8.581 4.9723
1 0.448911 -8.29425 5.53144
1 -0.413396 -8.70607 5.71868
1 0.0080897 -8.93211 6.52998
1 -0.145604 -8.0105 6.82586
1 -0.839017 -7.88484 7.53468
1 7.66561 -8.81531 7.23144
1 7.39371 -9.8901 7.17219
1 6.59464 -9.37821 7.42035
1 7.28825 -9.12221 8.09078
1 6.8495 -8.29436 8.11938
1 6.0165 -8.59335 7.73687
1 5.8046 -8.18989 8.63234
1 4.93097 -8.34369 9.02877
1 4.93809 -8.19463 8.08398
1 5.05992 -7.23421 8.00358
1 4.11741 -3.35546 -10.2416
1 4.56266 -2.57021 -10.2175
1 4.66766 -1.81461 10.1864
1 3.82837 -1.41013 10.4278
1 3.41817 -2.29785 10.4657
1 3.25128 -2.52242 9.5559
1 4.02217 -3.0222 9.52835
1 3.58013 -3.62702 8.85936
1 3.78021 -4.6366 8.9034
1 3.4144 -5.17178 8.23222
1 -7.35089 -0.727559 7.84878
1 -7.67029 -0.794825 6.97282
1 -8.05873 -1.58041 7.33134
1 -8.79858 -1.61297 8.0132
1 -8.39841 -2.39967 8.32028
1 -9.37744 -2.56468 8.12039
1 -9.24 -3.29156 8.69805
1 -9.66894 -3.93042 9.20707
1 10.3997 -4.16606 9.15341
1 9.75855 -3.46522 8.9576
1 2.96403 -2.02047 -6.952
1 2.34297 -2.77533 -7.05571
1 2.58821 -2.55508 -7.90206
1 1.97467 -3.27492 -7.91499
1 1.06275 -3.0925 -7.82769
1 1.40788 -3.37532 -7.01286
1 0.519593 -2.92666 -7.05846
1 0.34132 -2.23637 -6.39158
1 0.235093 -2.94661 -5.72785
1 -0.43302 -2.85865 -5.03128
1 -5.40526 5.30023 -0.899446
1 -4.56012 4.80679 -0.755763
1 -4.06991 5.19686 -0.0891531
1 -4.8102 5.30803 0.411076
1 -4.71933 5.87482 -0.403841
1 -5.36538 6.52358 -0.370158
1 -4.80451 7.19913 -0.80581
1 -5.66924 7.70982 -0.749086
1 -6.39011 8.26126 -0.455955
1 -6.66063 7.44317 0.0529815
1 3.20089 4.07056 5.18437
1 3.32876 5.02282 4.90209
1 3.93459 5.76651 5.08311
1 4.03138 6.67141 5.2514
1 4.56901 7.14248 5.89474
1 4.60138 7.74511 6.6172
1 5.04343 8.53609 6.86173
1 4.51912 8.46751 7.69551
1 4.81179 7.59214 7.82362
1 4.76745 8.13002 8.62741
1 2.19754 -3.67842 4.34568
1 2.77219 -3.56663 3.59493
1 3.73005 -3.70248 3.80527
1 3.26189 -3.24625 4.55134
1 3.61274 -3.94545 5.08559
1 4.2179 -3.53311 5.69964
1 4.38854 -2.6538 5.94723
1 5.28567 -3.00229 6.16945
1 4.57981 -3.32807 6.73332
1 5.19592 -3.13653 7.51228
1 -10.046 1.25094 -9.89824
1 10.2136 1.85262 -10.0754
1 9.4519 1.41508 -9.67638
1 10.0254 0.64699 -9.72485
1 9.7564 0.131223 10.4801
1 10.375 -0.265506 9.8071
1 10.1486 -0.992066 9.19429
1 9.92812 -1.39068 8.25235
1 10.3125 -0.741304 7.72913
1 10.012 -1.20084 6.93932
1 -7.89353 -4.13879 -10.0811
1 -8.34264 -3.92423 -9.19129
1 -9.11909 -4.41806 -8.98303
1 -8.87378 -4.62402 -9.95145
1 -9.61888 -5.15144 -9.79352
1 -9.47963 -5.63536 -8.96218
1 -8.78338 -5.29936 -8.47667
1 -8.06068 -5.20793 -9.09364
1 -7.38272 -5.41134 -8.46547
1 -6.5818 -5.17281 -8.9836
1 -2.50886 -1.49119 10.2603
1 -1.96225 -0.738329 9.99753
1 -1.8608 0.0662473 -10.4775
1 -1.58245 0.563305 -9.72825
1 -1.15135 1.28467 -10.0695
1 -1.06815 2.02367 -9.46509
1 -2.03494 1.94534 -9.6594
1 -2.47497 2.75761 -9.90657
1 -2.37268 3.32624 -9.07936
1 -2.90527 3.6306 -9.89512
1 -4.18771 3.62567 1.95919
1 -4.76204 3.70582 1.22965
1 -4.59061 4.59508 1.51151
1 -3.96065 4.50487 0.809235
1 -3.56706 3.66382 0.944226
1 -4.25212 3.05609 0.539447
1 -3.32986 2.71138 0.621113
1 -2.6186 2.89098 -0.0693001
1 -1.92764 2.11441 0.134949
1 -1.99386 1.13345 0.367303
1 6.24268 -7.00354 -9.11974
1 5.87553 -6.35195 -9.76264
1 6.68262 -6.38061 -10.3329
1 7.54948 -6.61254 -10.0925
1 8.28467 -6.57867 -9.42395
1 7.76642 -7.41632 -9.40874
1 8.05328 -7.03643 -8.50803
1 7.71221 -7.91244 -8.53501
1 6.79992 -7.81254 -8.69508
1 6.13188 -7.46784 -8.15308
1 1.69244 9.28357 -4.94365
1 2.0978 8.56992 -5.47717
1 3.06636 8.83293 -5.52388
1 3.6127 9.19688 -4.82304
1 4.16253 8.73962 -5.46993
1 3.94841 9.47437 -5.96555
1 3.60739 8.76459 -6.54426
1 4.30891 8.34117 -7.02345
1 5.19695 7.9367 -7.3282
1 4.4964 7.28258 -7.20132
1 -4.1303 0.00723949 -4.46399
1 -4.8675 -0.413342 -3.94905
1 -4.77537 0.206964 -3.17399
1 -5.7003 0.181474 -3.40826
1 -6.50645 -0.255347 -3.71451
1 -6.78059 0.767932 -3.8083
1 -7.29509 1.53291 -3.75534
1 -7.43523 2.37873 -3.35028
1 -6.78167 2.45563 -4.07803
1 -6.26045 1.68627 -4.03785
1 -4.45928 -6.09829 -4.84916
1 -4.56506 -5.26695 -4.36564
1 -4.65199 -5.19232 -5.29556
1 -4.26312 -4.3468 -5.13886
1 -4.47419 -4.29056 -6.04021
1 -3.49777 -4.46527 -6.06176
1 -2.77093 -4.44897 -5.46272
1 -2.68231 -5.19579 -6.01007
1 -2.9832 -4.93555 -6.91913
1 -3.02147 -4.97664 -7.90529
1 -0.80726 8.08696 -8.67947
1 -0.967619 8.18695 -9.62677
1 -0.725091 8.9918 -9.136
1 -0.276543 9.09133 -8.2439
1 0.17939 9.2326 -7.40226
1 0.627071 8.45036 -7.72308
1 1.55029 8.47711 -7.69205
1 1.18335 8.28993 -8.57205
1 1.89376 7.68455 -8.71965
1 1.24374 7.0246 -8.8387
1 4.12664 -9.21482 5.6327
1 4.21944 -8.50527 5.00184
1 4.09858 -8.76791 4.0587
1 4.40548 -9.16832 3.21559
1 4.82862 -8.90165 2.45711
1 5.17497 -8.13333 2.04624
1 6.02455 -7.99705 2.41626
1 6.45287 -7.80745 1.5686
1 5.67959 -7.30377 1.35823
1 5.76683 -6.812 0.567464
1 4.25335 -8.77919 7.51881
1 4.16746 -8.77254 6.59125
1 4.92672 -8.56832 6.03003
1 5.63747 -8.7171 6.75147
1 5.31618 -9.54904 7.09354
1 5.39164 -9.33215 7.96895
1 5.08726 -9.9281 8.66263
1 5.56615 10.4161 9.12429
1 5.54541 -10.0653 9.94711
1 4.68507 -10.0547 10.4669
1 8.59307 -6.0558 7.8778
1 8.10764 -5.32234 7.31493
1 8.07501 -6.25447 6.97772
1 7.55712 -6.59306 7.70039
1 7.48035 -7.4756 7.391
1 8.37277 -7.34886 7.65933
1 9.22855 -7.54379 7.30284
1 8.57677 -8.29279 7.35108
1 9.05613 -8.43392 6.49403
1 8.13035 -8.66244 6.33253
1 -4.63709 5.6181 9.27714
1 -5.45333 5.22938 8.98712
1 -5.24478 5.6365 8.12226
1 -4.70842 4.92207 7.67857
1 -4.16313 5.54385 8.2417
1 -3.91407 5.67098 7.35179
1 -3.14972 6.21848 7.18354
1 -2.95939 5.25076 7.21447
1 -2.70449 4.91726 8.04519
1 -2.95682 5.79665 8.07936
1 4.53543 -10.3719 -2.5674
1 5.35481 10.2276 -2.4597
1 6.05213 9.79211 -1.92317
1 6.79616 9.19365 -1.69775
1 7.59295 8.67061 -1.61706
1 8.3862 8.29711 -1.21133
1 8.64557 7.35117 -1.24298
1 8.7316 6.36815 -1.09867
1 9.43007 5.77361 -1.47066
1 10.2767 5.24407 -1.61752
1 8.24358 0.15038 -8.41106
1 8.41903 -0.802984 -8.47329
1 7.55859 -0.445275 -8.74681
1 7.03282 0.0115694 -8.04562
1 7.48425 0.862099 -7.77916
1 7.80827 0.977493 -6.90228
1 6.96169 0.493631 -6.92253
1 6.0053 0.744954 -7.19082
1 5.76364 0.222205 -8.02566
1 5.66321 0.465908 -9.01882
1 7.13164 -5.51249 6.83871
1 6.72142 -4.64832 6.78095
1 7.68683 -4.35857 6.65702
1 8.01565 -3.60906 6.13841
1 7.03275 -3.6633 5.93781
1 6.18715 -3.63536 6.52749
1 6.98239 -3.56007 7.08362
1 7.9258 -3.41481 7.19704
1 7.43357 -2.57344 7.26063
1 7.42484 -2.77013 8.18583
1 -2.64705 5.14749 2.35651
1 -2.9233 5.71839 1.63462
1 -2.00639 5.67904 1.28355
1 -1.7403 5.95203 2.09418
1 -2.49752 6.49423 2.09625
1 -3.03507 7.18293 1.69081
1 -2.64344 6.70089 0.848917
1 -3.42821 5.99104 0.791483
1 -4.21619 5.62487 1.13791
1 -4.27458 6.21187 1.91475
1 -2.49721 -0.153854 -9.14382
1 -2.34291 -0.712004 -9.86408
1 -2.10286 -1.71151 -9.65796
1 -3.05086 -1.73451 -9.80948
1 -3.96846 -2.00209 -9.97661
1 -4.87963 -1.8821 -9.8011
1 -5.60203 -2.52461 -9.61737
1 -5.83741 -1.59471 -9.84622
1 -6.70068 -1.34896 -9.62864
1 -7.65833 -1.24307 -9.39932
1 -8.14302 -7.16366 8.01161
1 -7.60086 -7.48829 8.75482
1 -8.20644 -7.30203 9.46775
1 -9.02668 -6.84305 9.54653
1 -9.20874 -7.70156 9.21967
1 -10.1357 -7.4698 9.28771
1 -10.2106 -7.77993 8.44734
1 10.4232 -8.62567 8.78303
1 -10.1302 -8.44721 9.6817
1 -9.59749 -7.87176 10.2164
1 -5.87774 9.3213 3.80698
1 -5.38528 9.28192 4.62041
1 -5.94437 9.78573 5.25624
1 -5.32439 10.4208 4.92062
1 -5.2419 -9.89529 4.24797
1 -4.40953 -9.64329 3.88436
1 -3.82667 -10.0506 4.55265
1 -3.41352 10.112 4.29524
1 -3.21888 9.20055 4.23539
1 -2.76503 8.55335 4.82574
1 -1.95591 -3.56827 3.73327
1 -2.35951 -3.20042 4.64736
1 -1.90332 -3.16514 5.44633
1 -0.961902 -3.06867 5.7298