8000
Atoms. Timestep: 10000000
1 -6.76468 0.345406 -4.43973
1 -6.156 1.05632 -4.64494
1 -6.5406 1.84788 -4.32128
1 -7.21061 1.31388 -4.81367
1 -7.22822 2.18052 -5.24168
1 -6.45782 2.68976 -4.98196
1 -6.0642 1.83975 -5.31741
1 -5.25793 1.31482 -5.70306
1 -5.9373 0.641162 -5.75136
1 -6.04025 1.40492 -6.48301
1 5.65144 -1.71522 9.64033
1 4.80129 -1.94987 9.97126
1 4.55114 -2.69335 9.45223
1 4.08964 -1.83185 9.34063
1 3.43311 -2.39746 8.79561
1 3.04689 -3.04923 8.17588
1 2.23209 -3.55854 8.16474
1 2.34531 -4.40808 7.75691
1 2.86037 -5.18238 7.31547
1 2.03377 -5.39121 7.82926
1 -3.40528 4.18519 6.0688
1 -3.15104 4.72022 5.26451
1 -4.09482 4.5256 5.39517
1 -3.80633 4.47934 4.50809
1 -2.97378 4.06307 4.36281
1 -3.03373 3.27903 4.88825
1 -3.82708 2.67519 4.95719
1 -4.03162 3.36731 4.36871
1 -4.24067 2.90266 3.5818
1 -4.65549 3.78153 3.67692
1 -0.501081 7.34499 10.0871
1 -0.848857 8.21231 10.0929
1 -0.828703 8.85595 9.41191
1 -1.19814 9.45099 10.0727
1 -1.89089 9.39571 -10.4884
1 -2.61982 9.40262 10.128
1 -2.27712 10.292 10.1641
1 -2.35134 -10.2485 -10.383
1 -2.26107 10.2859 -9.72382
1 -2.88701 -10.4596 -9.24695
1 -7.55594 -9.19893 -2.96267
1 -6.97448 -8.71129 -2.31878
1 -6.3045 -8.44306 -2.9071
1 -6.65612 -7.61292 -2.66827
1 -5.95604 -7.56477 -3.2852
1 -5.02986 -7.30304 -3.3656
1 -5.24927 -7.27804 -2.34111
1 -5.21357 -8.1729 -2.78395
1 -5.41291 -9.10291 -3.07558
1 -5.55296 -10.0099 -3.38764
1 -3.73579 -7.98911 1.58074
1 -3.85768 -7.86269 2.50651
1 -4.05981 -7.5622 3.41183
1 -4.57008 -8.34983 3.14492
1 -5.1432 -7.53599 3.15917
1 -5.8957 -7.07179 3.55393
1 -5.10873 -6.92043 4.06277
1 -4.5056 -6.18523 3.93957
1 -4.08099 -6.79549 4.60981
1 -4.25929 -7.36811 5.32039
1 -8.89695 -10.2708 3.39397
1 -9.76684 -10.5843 3.25374
1 -10.01 9.76108 3.084
1 -9.93334 10.3831 2.28011
1 10.427 10.0897 2.34151
1 10.6084 9.14614 2.50029
1 9.95582 8.51679 2.37688
1 10.0051 9.09312 1.60975
1 9.16816 9.38113 1.89085
1 9.15536 9.63334 0.99419
1 9.97161 -3.20672 -6.65513
1 10.1969 -3.52254 -7.57481
1 10.2837 -4.44279 -7.21713
1 -10.1044 -4.17599 -7.49549
1 -9.95934 -4.34747 -6.51493
1 10.5085 -3.90706 -6.27134
1 10.0277 -3.42724 -5.54366
1 9.99819 -3.52957 -4.49521
1 10.5979 -3.99766 -3.95053
1 -10.3947 -3.27214 -3.39703
1 3.82143 5.75822 -0.539913
1 3.57208 5.69972 0.376754
1 2.93252 6.1969 0.843982
1 2.19825 6.34342 1.49131
1 1.81879 5.57913 1.06248
1 2.09663 5.16617 1.88021
1 2.28042 4.30506 1.43353
1 2.90017 4.01783 2.12703
1 2.16357 3.52319 2.50299
1 1.69782 2.92111 3.0395
1 7.27985 3.62186 0.297493
1 7.22036 2.64127 0.142282
1 6.60385 3.06068 -0.37696
1 6.90399 2.88987 -1.32125
1 7.79368 2.68199 -1.7571
1 7.73783 3.61562 -1.86742
1 6.79408 3.8049 -2.08398
1 6.18331 3.89361 -1.29041
1 5.78231 3.93546 -2.15335
1 5.76288 4.84463 -2.37087
1 -3.39088 -5.84435 8.57163
1 -3.30295 -5.59047 9.51864
1 -2.8336 -4.77454 9.59792
1 -3.61097 -4.28084 9.42929
1 -4.49634 -3.90205 9.73212
1 -4.72223 -3.68822 -10.5541
1 -5.47724 -3.80118 10.0065
1 -5.74016 -3.16192 9.22894
1 -6.58498 -3.35348 9.43718
1 -7.04757 -2.58121 9.16847
1 -7.51545 -2.16917 5.00717
1 -6.53369 -2.31633 5.21253
1 -5.82209 -1.74353 4.95855
1 -6.67186 -1.465 4.61412
1 -7.61247 -1.39984 4.34664
1 -7.91742 -0.476987 4.09324
1 -8.79364 -0.825297 4.03572
1 -8.85759 -0.660215 3.0828
1 -8.7232 -0.408292 2.24871
1 -8.99461 -1.30353 2.08451
1 4.24728 -9.53585 -9.7408
1 4.14136 -9.12554 -8.8531
1 3.64636 -8.44354 -9.21515
1 3.22029 -8.25415 -8.35779
1 2.33383 -8.49464 -8.1553
1 2.82272 -8.88091 -7.40386
1 2.71343 -9.39309 -6.66164
1 2.63838 -9.04385 -5.7513
1 2.55656 -8.10031 -5.90179
1 2.49437 -8.02497 -4.95823
1 4.67788 1.29599 -7.60881
1 5.21379 1.35897 -8.44173
1 4.66188 1.20061 -9.18462
1 4.12556 0.806925 -8.54821
1 4.35655 0.329016 -7.73298
1 4.12485 -0.132107 -6.82536
1 3.28523 0.170854 -7.20863
1 2.30264 0.184898 -7.29369
1 1.34338 0.391489 -7.18912
1 1.05037 0.599593 -8.08112
1 1.60044 -8.08536 -3.21193
1 1.53892 -9.05233 -3.20665
1 0.729101 -8.79889 -2.69101
1 0.532589 -7.88024 -2.78829
1 0.257882 -7.94042 -1.92204
1 0.465011 -8.79498 -1.59331
1 0.224914 -9.52105 -1.00713
1 -0.264464 -10.2154 -0.564797
1 0.633328 -10.4656 -0.895597
1 1.05423 9.91697 -0.921659
1 -4.53159 -9.33089 -0.052041
1 -4.77477 -9.33438 -1.01113
1 -5.69845 -9.06181 -0.985754
1 -5.59097 -10.0007 -1.27949
1 -5.15683 -9.63472 -2.03311
1 -5.41288 -10.5161 -2.36167
1 -5.59776 10.2748 -1.57976
1 -4.74152 10.6096 -1.38079
1 -4.05373 -10.041 -1.22691
1 -4.01479 -10.1366 -2.16536
1 9.77078 -8.49714 -4.20277
1 9.32301 -8.39819 -3.36867
1 9.84149 -8.00488 -2.68747
1 10.1073 -7.08588 -2.50527
1 -10.3569 -6.79503 -2.97536
1 -10.1554 -7.69806 -3.15901
1 -9.5182 -7.10731 -3.7604
1 -10.3254 -7.51564 -4.12299
1 -10.1314 -6.92752 -4.78735
1 -10.221 -6.27751 -4.14382
1 3.817 6.63392 -2.00294
1 4.70077 6.9633 -2.17187
1 4.09055 7.12279 -2.88278
1 3.2824 7.67871 -2.76437
1 3.41891 7.63621 -3.68107
1 3.15201 8.52578 -3.62906
1 3.99698 8.4285 -3.05732
1 4.17712 8.1171 -2.09415
1 3.46267 7.58026 -1.71199
1 2.63784 7.19886 -1.50822
1 -0.770893 4.68097 3.3847
1 -1.58928 4.77129 2.95237
1 -1.20225 4.04655 2.45506
1 -0.455966 3.72731 1.89471
1 -0.308311 3.81911 2.84777
1 0.161804 3.09496 3.30735
1 0.817102 3.77778 3.19036
1 0.213163 4.14376 3.80364
1 -0.374134 3.94612 4.50167
1 -1.04834 3.96745 5.18088
1 0.743097 -5.13118 -0.176555
1 1.13815 -4.98933 0.672693
1 0.507001 -4.93078 1.39418
1 -0.0412447 -5.41078 1.98367
1 -0.889847 -5.61364 2.31694
1 -0.769161 -5.74214 1.4094
1 -1.15425 -6.56016 1.56777
1 -1.47695 -6.64449 2.44899
1 -2.32776 -6.77417 2.08699
1 -2.07143 -7.32593 2.86478
1 -4.81888 2.57253 -5.04161
1 -5.36872 2.6246 -4.28136
1 -5.30383 3.56293 -4.3349
1 -4.52524 3.98115 -4.66465
1 -4.32339 3.38461 -5.39269
1 -4.83341 3.13397 -6.16646
1 -4.89937 3.8927 -6.73984
1 -4.22411 4.08037 -7.4
1 -4.05273 4.95695 -7.82877
1 -3.83693 5.75645 -8.41584
1 8.36281 -0.0482678 2.85372
1 7.93597 -0.633355 2.20581
1 7.47868 -0.553511 3.01242
1 8.12457 -1.24423 3.14114
1 8.83968 -1.87018 2.81077
1 8.12773 -2.34138 2.39084
1 8.63767 -3.1545 2.17426
1 8.5936 -2.81442 1.23041
1 9.07894 -2.11666 1.72896
1 8.71667 -1.21241 1.51847
1 0.424876 -10.1984 3.74555
1 1.00341 -9.57636 4.1374
1 1.24137 -9.55422 5.10829
1 1.93923 -10.2876 5.13583
1 1.82623 -10.1959 4.18254
1 2.28893 -9.41166 4.59674
1 2.266 -8.8614 5.41091
1 2.819 -8.59168 6.17126
1 3.52919 -8.78612 5.59278
1 3.16947 -7.93332 5.4707
1 8.97749 7.62653 -0.860553
1 9.6677 7.7177 -0.168202
1 9.17355 8.48415 -0.156941
1 9.56698 9.39029 0.0931999
1 10.4559 9.20644 -0.312138
1 -10.3495 9.93361 -0.738213
1 -10.1858 10.4606 -1.49309
1 10.1161 10.395 -1.37203
1 9.4713 9.72697 -0.953938
1 9.89093 9.11166 -1.59243
1 5.21685 1.11275 0.419473
1 5.60964 1.52453 -0.397176
1 4.72371 1.33005 -0.634417
1 4.50066 1.98314 0.0441911
1 3.93569 2.63792 -0.461902
1 3.22353 2.80983 -1.07039
1 3.46587 3.72579 -0.902562
1 4.24369 4.03924 -0.545541
1 4.94628 4.42768 -1.0774
1 5.7641 4.9658 -1.33438
1 8.61803 -1.58037 -0.4405
1 8.94058 -2.08804 0.356779
1 9.14804 -2.62867 -0.490792
1 8.8203 -3.46757 -0.195749
1 9.73865 -3.85861 -0.311645
1 9.73825 -3.23013 -1.02035
1 9.13719 -2.98382 -1.68914
1 9.06211 -2.36176 -2.40772
1 9.8219 -1.98735 -2.88647
1 9.46517 -1.58278 -3.66201
1 5.2293 10.4778 -5.78528
1 5.61242 -10.1684 -5.15084
1 6.09281 -9.64249 -5.87483
1 5.81778 -8.796 -6.30822
1 5.2415 -8.27406 -6.91939
1 4.85433 -7.86239 -6.21175
1 3.94456 -7.81705 -6.5127
1 3.45335 -8.6671 -6.42105
1 3.95999 -9.04203 -5.6445
1 3.65501 -8.07459 -5.38414
1 4.63681 -4.64919 -2.59886
1 4.60473 -5.36402 -1.97935
1 5.31424 -5.29022 -1.26038
1 6.26083 -5.29505 -1.50829
1 5.69967 -5.10081 -2.30211
1 6.04995 -5.98913 -2.5253
1 6.6749 -5.36875 -2.82591
1 6.6607 -6.14442 -3.42306
1 7.04017 -7.06061 -3.34098
1 7.28236 -7.31917 -4.2457
1 3.18903 -2.42151 -7.84937
1 3.48374 -1.59217 -7.35831
1 2.93018 -0.897139 -6.95728
1 2.85777 -0.62744 -7.89292
1 3.49497 -0.0632593 -8.29497
1 4.1565 -0.708284 -7.95148
1 5.05555 -0.48401 -7.91
1 5.99192 -0.412897 -7.60421
1 6.63283 0.240293 -7.38922
1 6.73436 1.19824 -7.21197
1 -9.11157 -2.30299 2.11292
1 -10.0168 -2.35368 1.69252
1 -9.94777 -1.86313 0.866725
1 -10.3301 -2.79487 0.650346
1 10.2829 -3.53977 0.489666
1 9.59521 -2.81057 0.531514
1 10.2468 -2.74604 -0.207156
1 10.55 -1.96721 0.219749
1 10.4919 -1.89403 -0.739252
1 9.66438 -1.51324 -0.464818
1 -1.52226 2.07333 -10.387
1 -2.45332 1.73341 -10.4136
1 -1.9835 1.67533 9.99928
1 -2.16661 2.59263 10.2248
1 -1.24676 2.48224 9.97276
1 -1.68752 3.20942 9.52681
1 -1.17681 3.51502 10.2921
1 -0.582184 3.94304 -10.3818
1 -0.439108 4.18536 -9.45775
1 -0.862091 4.94834 -9.8551
1 -7.88582 -4.36159 -3.94385
1 -7.72373 -5.3599 -3.9683
1 -8.76224 -5.20446 -3.92704
1 -9.06204 -6.10284 -4.14148
1 -9.34788 -5.57402 -4.93251
1 -9.83658 -5.66239 -5.81345
1 -10.6147 -5.68018 -5.29873
1 -10.4717 -4.7853 -5.4793
1 -10.3821 -3.93128 -5.0501
1 -9.65726 -4.53847 -4.77023
1 -8.39392 -7.88268 -3.81509
1 -7.86824 -8.73757 -3.97063
1 -7.57159 -9.58433 -4.39801
1 -6.64192 -9.79237 -4.65087
1 -7.1922 -9.81113 -5.46935
1 -7.72828 -9.03006 -5.30483
1 -7.31088 -8.22273 -4.81096
1 -7.26701 -7.24757 -4.52718
1 -7.31576 -7.74136 -3.76092
1 -7.74364 -8.14028 -2.91633
1 -10.3057 0.615521 -1.35547
1 -9.392 0.922015 -1.22635
1 -9.99634 1.17207 -0.492214
1 -10.283 0.911902 0.452792
1 -9.37081 1.15687 0.405984
1 -8.91277 1.9713 0.446464
1 -8.67801 1.53991 -0.352233
1 -8.38474 1.02423 -1.09394
1 -7.6921 0.952826 -0.372101
1 -7.34858 0.799112 -1.27952
1 -8.53812 5.46281 -4.05164
1 -8.16641 6.26485 -3.74991
1 -8.69724 6.06527 -3.00836
1 -8.73316 6.99406 -2.78627
1 -9.39925 7.51624 -2.50058
1 -10.1369 7.57273 -3.12978
1 -9.88327 8.18392 -3.73984
1 -9.92972 9.13096 -3.84728
1 -9.68868 9.42076 -4.70774
1 -8.89003 8.96531 -4.48219
1 5.86046 1.9366 9.61086
1 6.06096 2.78403 9.99713
1 5.61664 3.14124 -10.3739
1 6.32909 2.52671 -10.0419
1 6.68623 3.35297 -10.391
1 7.1815 3.86693 10.3307
1 7.28701 4.69703 9.98628
1 7.10085 4.48079 9.04026
1 7.33212 3.48886 9.24612
1 7.7322 2.73126 8.81503
1 4.73302 8.47348 2.66851
1 3.77532 8.27292 2.97135
1 3.57704 7.7437 3.76209
1 4.24951 8.20066 4.21294
1 4.48258 9.10604 3.95293
1 4.62103 8.83877 4.89851
1 3.75375 9.34161 4.65292
1 3.39015 9.38911 3.75961
1 3.05267 8.55925 4.02911
1 2.461 8.01181 3.47623
1 -2.12443 -1.00897 -6.96625
1 -1.64579 -1.72856 -6.54443
1 -1.3572 -1.5234 -5.66414
1 -0.956683 -0.891522 -6.26904
1 -1.13337 -0.134043 -5.73018
1 -0.610094 -0.268261 -4.90825
1 0.0666285 0.429862 -4.74832
1 0.474229 1.11949 -4.14885
1 0.193196 1.8526 -3.62707
1 -0.340575 2.14864 -2.84555
1 -6.5007 -4.98015 6.13938
1 -6.92149 -4.19235 6.41272
1 -7.0872 -3.90838 5.48376
1 -7.08472 -4.56792 4.74732
1 -7.59322 -5.38527 4.97376
1 -8.53367 -5.24506 5.0324
1 -8.30999 -4.91754 4.14134
1 -7.57211 -5.5998 3.93088
1 -8.39686 -5.72622 3.56214
1 -8.97649 -5.74734 4.34212
1 2.91982 -3.71547 -3.44685
1 2.0786 -3.41701 -3.75801
1 2.70701 -3.7116 -4.40699
1 1.75669 -3.6679 -4.70099
1 0.94254 -4.1495 -4.38538
1 0.0784988 -4.44512 -4.16862
1 0.618522 -4.32232 -3.38656
1 -0.0885016 -4.93696 -3.27092
1 -0.129042 -4.52794 -2.36221
1 0.201635 -3.89736 -1.70313
1 6.072 -5.90488 5.17053
1 5.62268 -5.34013 5.92002
1 5.12675 -5.89574 6.464
1 4.57037 -6.06615 5.6615
1 3.95132 -5.56492 6.18889
1 3.59973 -5.36169 5.25116
1 2.75361 -5.88821 5.14809
1 2.5714 -4.98974 4.81626
1 3.22621 -4.26167 4.54578
1 3.66165 -3.94161 3.78506
1 -5.47492 9.62173 -6.21034
1 -6.17211 8.967 -6.26455
1 -6.52588 9.77455 -5.9575
1 -7.25858 9.17766 -6.12018
1 -8.05399 8.97045 -6.64883
1 -8.86509 8.5076 -6.52585
1 -9.49731 7.8188 -6.80565
1 -9.65554 6.96852 -6.39261
1 -9.07181 7.49212 -5.80874
1 -8.27326 6.94963 -5.50807
1 -7.28752 -3.22205 0.700613
1 -6.52208 -3.1919 1.27205
1 -6.40376 -3.91295 1.95379
1 -6.2879 -4.07093 2.87298
1 -6.67286 -4.97931 3.0803
1 -7.62062 -4.77375 2.94164
1 -7.98641 -4.03095 2.39715
1 -7.60847 -3.68352 1.52223
1 -7.54843 -4.50471 0.879653
1 -7.74504 -3.95492 0.0665528
1 -5.12671 -3.36204 6.87726
1 -5.6778 -4.15018 6.48911
1 -5.43897 -5.055 6.64163
1 -5.5111 -4.89248 5.70776
1 -5.64291 -5.79664 5.52602
1 -6.51019 -5.48775 5.22558
1 -6.78954 -6.06248 5.95652
1 -7.2469 -5.48495 6.61102
1 -7.89566 -4.78917 6.61089
1 -8.08592 -4.69305 5.70891
1 8.90759 1.06826 6.04533
1 8.10887 1.43545 5.6954
1 7.25343 1.78506 5.50486
1 6.74411 2.57247 5.03592
1 7.68279 2.73359 4.97984
1 8.52849 2.35905 4.62594
1 8.7988 2.92908 5.37072
1 9.71472 2.77337 5.44132
1 9.48052 2.09273 4.83512
1 9.5422 1.18614 5.09212
1 1.17823 -8.61844 9.62286
1 1.80737 -8.02418 9.13667
1 1.41752 -8.06161 8.27921
1 1.88165 -7.28319 8.11412
1 1.91609 -7.12429 7.17053
1 1.70461 -6.89996 6.22938
1 2.5521 -6.53784 6.55793
1 2.57628 -6.29321 7.56224
1 3.26751 -5.83744 8.10432
1 3.48739 -5.78127 9.07337
1 -8.94129 -4.36287 -2.81954
1 -9.6955 -4.01332 -3.33812
1 -10.0573 -3.79235 -2.46531
1 10.6143 -4.40722 -2.03671
1 10.2729 -3.53116 -2.03486
1 -10.1849 -3.23962 -1.60781
1 10.41 -2.58272 -1.75617
1 10.436 -1.70254 -2.03552
1 -10.0568 -1.29866 -1.66979
1 -9.99595 -0.38742 -1.41872
1 -1.53304 -8.39646 6.20991
1 -0.84048 -8.70704 6.95928
1 -1.12518 -9.60008 6.64194
1 -1.09448 -10.5166 6.80224
1 -1.96944 10.4557 6.77304
1 -2.5867 -10.0893 6.70511
1 -2.20347 -9.2405 6.52095
1 -1.93012 -9.82828 5.70703
1 -2.84894 -10.2369 5.65437
1 -3.23584 10.5805 4.89497
1 -4.86714 -3.5545 -9.41638
1 -4.98897 -2.64204 -9.14178
1 -4.31411 -2.26925 -8.68606
1 -4.39013 -1.42257 -8.22799
1 -4.37549 -0.495026 -8.49574
1 -3.93884 -0.514472 -7.72791
1 -3.89794 0.366902 -7.34748
1 -3.51385 0.387281 -8.19021
1 -3.24742 -0.371866 -8.68182
1 -3.61064 -0.334146 -9.61811
1 6.23958 -4.9491 7.91945
1 6.14583 -5.71661 7.28235
1 5.29393 -5.67276 7.68745
1 4.7349 -5.80156 8.50713
1 5.69781 -5.50942 8.63796
1 5.57336 -6.24472 9.19517
1 5.70965 -7.05986 9.68558
1 5.18958 -6.69821 10.4569
1 4.79763 -7.54494 10.2187
1 4.77414 -7.73329 -10.0989
1 -5.99641 -4.70797 10.2819
1 -5.67208 -5.54125 9.82356
1 -5.18419 -4.77216 9.50071
1 -4.635 -4.83801 10.3243
1 -3.74163 -4.86514 -10.6051
1 -2.82194 -4.48827 -10.6023
1 -2.58976 -5.39599 10.3731
1 -2.32408 -5.19291 -9.95624
1 -1.7131 -5.48108 -9.28079
1 -2.1689 -5.47961 -8.32913
1 -5.92159 4.64905 4.0628
1 -6.05347 3.72747 4.33835
1 -6.98573 3.71981 4.57125
1 -6.98667 4.63784 4.81248
1 -6.97203 5.04064 3.89045
1 -7.82119 5.14046 4.30464
1 -8.379 5.92215 4.24857
1 -9.07309 5.37299 4.38139
1 -9.77539 4.94826 3.81721
1 -8.93842 4.60685 3.57974
1 -3.77117 -1.19165 2.08966
1 -4.34155 -1.9077 1.80336
1 -5.1995 -1.73152 2.32064
1 -5.77489 -2.27157 1.7584
1 -6.45602 -1.9739 1.23181
1 -6.24515 -2.44339 0.386694
1 -5.69566 -1.69775 0.156528
1 -6.49659 -1.88004 -0.442926
1 -7.18822 -1.26071 -0.0471241
1 -7.15483 -0.324005 0.114938
1 -10.4369 0.355345 6.93567
1 -10.6222 1.27067 6.72754
1 10.5163 2.1293 7.13583
1 -10.3099 1.65241 7.84174
1 -10.2425 2.36497 8.44186
1 -9.50048 1.75896 8.48716
1 -8.8836 1.21923 8.91697
1 -8.68597 1.16171 7.98811
1 -8.35409 1.98735 7.74965
1 -8.36664 2.7651 7.2427
1 -3.82778 -7.50771 -3.28861
1 -3.49432 -6.6078 -2.92916
1 -2.85692 -6.07137 -3.50147
1 -2.00129 -5.84463 -3.80605
1 -1.42726 -5.92231 -3.07141
1 -0.592317 -6.14207 -3.48851
1 -0.61822 -6.4371 -2.52893
1 0.327096 -6.2092 -2.43671
1 0.800625 -7.06866 -2.35767
1 1.21161 -7.07116 -3.21385
1 9.94915 -7.31963 1.65176
1 9.70469 -8.2597 1.73605
1 10.5421 -8.37919 2.14327
1 10.5375 -7.59953 2.70536
1 9.89159 -8.30478 2.86689
1 9.39467 -7.55607 2.49299
1 8.82514 -7.26124 1.82109
1 9.19887 -7.41643 0.93161
1 9.3199 -8.39624 0.837767
1 10.0375 -7.81121 0.585633
1 10.5642 2.60707 -9.98346
1 10.202 3.43243 -10.3101
1 10.1694 3.18705 10.021
1 10.5027 2.94455 9.13683
1 -10.2669 3.60074 9.55318
1 -9.60308 3.3869 10.1615
1 -10.1569 2.55101 10.0662
1 -9.46985 2.5786 -10.5083
1 -9.59707 1.66528 -10.1409
1 -10.4471 1.60016 -9.69713
1 1.15044 5.92298 7.22567
1 2.11332 5.94737 7.278
1 2.96314 5.85985 7.68808
1 2.96759 6.16862 8.61545
1 3.15097 7.13818 8.57438
1 3.71985 7.72573 9.01636
1 3.86139 7.68349 9.95874
1 4.38552 7.739 -10.5358
1 4.83138 7.0388 10.1768
1 5.7488 6.84448 10.0077
1 -6.76088 -1.26082 -9.37052
1 -7.45612 -1.09334 -9.9306
1 -8.35135 -1.01777 -10.2514
1 -8.27878 -0.159959 -9.85615
1 -8.17491 0.596269 -9.24872
1 -8.00876 1.02646 -10.0675
1 -8.16622 0.587742 10.293
1 -7.1939 0.778317 10.1751
1 -7.67728 0.669601 9.345
1 -8.18231 0.480045 8.54245
1 -8.93684 -5.34507 -2.78071
1 -8.56826 -5.00333 -2.04547
1 -9.02468 -5.5459 -1.39808
1 -9.49352 -4.69255 -1.37275
1 -9.34501 -4.33023 -0.474753
1 -9.51029 -4.52647 0.415862
1 -9.25638 -5.28312 -0.0925887
1 -9.28471 -6.11749 -0.484071
1 -9.98523 -6.20433 -1.17387
1 -10.6012 -6.02527 -0.50607
1 3.29998 -2.3911 -2.26348
1 2.5667 -2.12719 -2.82799
1 3.28175 -1.69568 -3.22956
1 3.63122 -0.777618 -3.20506
1 3.34468 0.0812889 -3.66696
1 2.36882 0.430537 -3.72015
1 2.41015 1.16094 -4.3341
1 1.52899 0.891689 -4.66352
1 2.11839 1.17736 -5.34508
1 2.89962 1.3112 -5.82583
1 5.2527 1.92319 8.77733
1 4.79229 2.11929 9.67711
1 4.95582 2.46783 10.5769
1 4.39399 1.93401 -10.0696
1 3.59633 2.3715 -9.77531
1 3.90348 2.04923 -8.97862
1 3.40671 2.74416 -8.59723
1 3.90752 2.97759 -7.74757
1 4.59918 2.45705 -8.22525
1 4.92523 2.32836 -9.15419
1 7.5652 8.11795 9.06103
1 7.17974 8.33228 9.87787
1 7.15466 8.92237 10.6292
1 6.65127 9.5346 -10.1282
1 6.81493 10.0366 10.3152
1 7.43431 10.5336 -10.4083
1 7.78203 -9.83067 -10.0924
1 8.38367 -9.75227 10.4389
1 8.15718 -10.6199 9.977
1 7.31586 -10.2699 9.72351
1 3.63995 8.74734 -7.35282
1 2.90798 8.3288 -7.0087
1 2.35677 9.01392 -7.34886
1 1.80492 8.75544 -6.60923
1 2.37699 9.16859 -6.02104
1 2.4029 9.97292 -6.56387
1 3.22442 9.53223 -6.56635
1 3.63056 9.75534 -7.44228
1 4.19019 9.27453 -6.78618
1 4.04751 8.46285 -6.31374
1 2.96498 -10.1598 2.07592
1 3.48963 -10.166 2.85538
1 3.62964 -9.26631 3.22996
1 4.06117 -9.60705 4.06227
1 3.93205 -10.0396 4.9072
1 3.19024 -9.52323 5.09722
1 3.30217 -8.83811 4.43084
1 2.53781 -8.22667 4.44321
1 1.63482 -8.47019 4.48935
1 1.7765 -7.51032 4.35993
1 8.83774 -1.81659 5.62266
1 8.73869 -1.31108 6.53426
1 9.22336 -0.701247 5.94666
1 9.30816 -0.933584 5.00425
1 8.95774 -1.33555 4.20731
1 9.44112 -0.55933 3.97552
1 9.09211 -0.753611 3.11871
1 9.02836 -0.512447 2.18845
1 9.52392 0.298889 1.95319
1 10.429 -0.0669153 2.08379
1 -8.70031 -5.97524 9.97262
1 -7.84415 -6.16331 10.2793
1 -7.8495 -5.26437 -10.5404
1 -8.29024 -5.01344 9.9184
1 -8.67399 -4.24756 9.64544
1 -9.51163 -4.26528 9.12
1 -9.86172 -5.09808 9.46337
1 -9.75419 -5.97102 9.12188
1 -8.88799 -5.48478 9.07156
1 -8.30156 -6.00245 8.5168
1 4.94293 4.60414 5.31427
1 5.54974 5.09755 4.7354
1 5.26625 5.80168 4.15844
1 6.15948 5.97788 4.21595
1 5.74264 6.62627 3.64526
1 6.55121 6.28059 3.26102
1 6.47352 7.2316 3.12897
1 5.82371 6.91312 2.46931
1 5.66002 6.62786 1.50303
1 5.36472 7.48131 1.15345
1 0.188243 4.59907 -2.25729
1 -0.671787 4.11503 -2.53756
1 -0.510196 4.06871 -3.45079
1 -0.565323 4.98975 -3.54551
1 -0.456433 5.33487 -2.60479
1 -0.694943 4.95689 -1.78166
1 -0.014357 4.79547 -1.17516
1 0.342895 3.93782 -1.42267
1 -0.375189 3.36825 -1.01306
1 -0.880978 4.12329 -0.715816
1 0.537662 9.38785 -5.03114
1 1.11168 10.1511 -4.98206
1 0.908845 10.2187 -5.96284
1 0.210523 -10.3445 -5.92209
1 0.351843 -10.5027 -6.91827
1 -0.0289638 9.89091 -6.62897
1 -0.192971 8.98656 -6.54236
1 0.0420098 8.75249 -7.41867
1 0.699254 9.43602 -7.65833
1 1.49873 9.65493 -7.07509
1 -8.81546 3.84283 -7.52063
1 -8.11662 4.39898 -7.55065
1 -8.37086 5.27499 -7.76248
1 -9.01632 5.72725 -8.33726
1 -9.68176 5.56011 -9.07326
1 -10.2577 5.96204 -8.45613
1 10.0735 5.99159 -8.48071
1 10.0711 6.95223 -8.86007
1 -10.3081 6.75873 -9.2681
1 -9.40928 6.64875 -8.81153
1 -5.73986 -8.14318 -5.91493
1 -6.16938 -8.45426 -5.09504
1 -5.27781 -8.17917 -5.0347
1 -5.3543 -8.30737 -4.03532
1 -6.31833 -8.47427 -3.99601
1 -6.12722 -7.60326 -4.33979
1 -6.20659 -6.69784 -4.49635
1 -6.88722 -6.06275 -4.40662
1 -6.03715 -5.73782 -3.94179
1 -5.56743 -6.40584 -3.4375
1 -2.4936 -3.75757 0.118386
1 -3.11651 -4.44811 0.285807
1 -3.46846 -5.0533 0.966531
1 -2.61447 -5.29774 1.31006
1 -1.89198 -5.75025 1.77707
1 -2.14562 -6.2302 0.998427
1 -2.90438 -5.84155 0.426095
1 -2.14053 -6.13844 -0.135913
1 -2.73292 -6.75477 -0.607873
1 -2.96989 -6.93796 0.301131
1 -7.86145 -10.2854 -0.371732
1 -6.93268 -10.1739 -0.499003
1 -6.98364 10.4456 0.17723
1 -6.92214 -9.85432 0.558032
1 -6.03447 -10.1977 0.35757
1 -5.61104 -9.47013 -0.0759817
1 -5.46635 -10.3872 -0.358298
1 -5.99207 10.1045 -0.0794374
1 -5.29258 9.81823 0.489781
1 -5.76265 10.2015 1.25397
1 9.42411 -10.1419 5.11799
1 8.78561 -10.2227 5.88921
1 9.18617 -9.31492 6.13151
1 9.79696 -9.3396 6.88309
1 8.99804 -8.73807 7.02857
1 9.08844 -8.9728 7.97825
1 9.92559 -8.5296 7.94004
1 -10.4169 -8.13375 7.94321
1 -9.75013 -7.45574 8.07118
1 -9.3632 -6.55689 8.31434
1 -5.77317 9.0118 -7.4764
1 -5.82019 9.93421 -7.3848
1 -4.90728 9.57867 -7.23474
1 -4.59306 8.68885 -7.6295
1 -3.70185 8.56469 -7.82106
1 -3.56605 9.43979 -7.28749
1 -3.09581 8.84802 -6.67764
1 -3.93602 8.30276 -6.6845
1 -4.72072 8.82944 -6.46098
1 -4.34818 8.65318 -5.55524
1 -7.24228 -3.98331 -6.40776
1 -6.53457 -3.64658 -6.99136
1 -6.61729 -2.66279 -7.08879
1 -7.09127 -2.57128 -7.91817
1 -6.80935 -1.76914 -8.39957
1 -7.44035 -1.01875 -8.51904
1 -7.42728 -0.0625093 -8.46106
1 -7.61041 -0.120772 -7.51051
1 -7.94776 0.421936 -6.81968
1 -7.43955 -0.412944 -6.5066
1 -3.39272 3.83376 7.67678
1 -4.14834 3.35808 7.7741
1 -5.06963 3.62885 7.78486
1 -4.83371 3.47184 8.65285
1 -5.42936 3.09264 9.27251
1 -6.23575 2.62149 9.27221
1 -6.75734 1.95004 8.70534
1 -7.41381 2.39404 8.08132
1 -7.24139 3.0856 8.85432
1 -7.30207 4.03626 8.85118
1 -9.69782 -9.50035 8.04245
1 -9.22767 -8.68733 7.78072
1 -9.16375 -9.37709 7.1547
1 -8.76955 -10.1872 7.41785
1 -7.79797 -10.0404 7.37435
1 -7.50196 -9.30815 6.90508
1 -8.15462 -8.78435 6.51603
1 -8.10609 -8.24873 7.33697
1 -7.86942 -9.08054 7.839
1 -8.39951 -9.75563 8.23347
1 1.56297 -1.81705 -10.3397
1 2.46283 -1.58707 -10.1628
1 2.97992 -2.05809 10.4166
1 3.37066 -2.50767 -10.0093
1 3.01577 -2.09191 -9.26689
1 2.39893 -2.75546 -9.59919
1 2.49075 -3.06029 -8.70691
1 2.60848 -3.77523 -9.36641
1 3.56812 -3.64488 -9.49691
1 4.02259 -2.99411 -8.89713
1 -6.31256 8.97418 -3.09286
1 -7.12125 9.28484 -3.65818
1 -7.45274 9.34087 -2.74988
1 -8.23574 9.10505 -3.27638
1 -7.95297 8.36457 -2.85391
1 -8.06698 7.60968 -2.3612
1 -7.20217 7.68165 -2.83222
1 -7.66805 6.83742 -2.92568
1 -8.10939 6.43131 -2.24507
1 -8.94095 6.14946 -1.94596
1 9.13411 -6.75689 7.31139
1 9.06249 -7.73494 7.40966
1 8.24827 -8.21308 7.62989
1 7.86263 -8.99162 8.02775
1 8.32954 -9.5593 7.42753
1 7.80983 -9.48852 6.58902
1 7.70525 -10.2626 6.02885
1 6.8693 -10.0626 6.51957
1 6.73384 -10.0995 5.56835
1 6.64999 10.2645 6.04022
1 -0.178299 -1.11393 -4.44279
1 0.440839 -0.46957 -4.81817
1 0.510912 -0.0779422 -3.97591
1 0.542614 0.433411 -3.2133
1 -0.259015 0.722547 -3.60666
1 -0.459748 -0.214874 -3.56685
1 -0.458556 -1.19997 -3.40147
1 -0.132341 -0.53935 -2.71751
1 0.585555 -0.328979 -2.10603
1 0.808262 0.504964 -1.73346
1 8.36553 -9.84058 -4.73421
1 8.39875 -8.90738 -4.89823
1 7.50902 -8.44079 -4.92467
1 8.10085 -7.62531 -4.85574
1 8.85721 -8.02849 -4.53848
1 8.37949 -7.64337 -3.83241
1 7.94107 -7.24922 -3.07055
1 8.17173 -6.75594 -2.22812
1 7.81544 -5.86382 -2.32436
1 8.62791 -5.57634 -2.68879
1 5.18312 7.6739 -2.99447
1 5.69918 8.12763 -3.62693
1 5.80151 8.30311 -4.61149
1 5.33309 9.01314 -5.00303
1 5.30602 9.84595 -4.53078
1 6.01685 10.4701 -4.49926
1 6.85038 10.0909 -4.31807
1 6.25173 9.47785 -4.7762
1 7.12282 9.2063 -5.0297
1 7.72258 9.60288 -4.32886
1 -3.83199 8.21556 -3.2918
1 -3.98931 8.19448 -2.37105
1 -4.22654 7.26938 -2.66571
1 -5.17035 7.00146 -2.48029
1 -4.93417 6.95267 -1.49635
1 -4.25451 6.37961 -1.74857
1 -3.48472 5.90389 -2.07364
1 -3.45538 5.65352 -2.99509
1 -4.15582 6.25332 -2.90622
1 -4.91734 5.94628 -2.50516
1 -0.360598 -6.82094 0.990555
1 -1.09515 -7.0032 0.364968
1 -1.9723 -7.17192 0.0546369
1 -1.92278 -7.2774 0.977198
1 -1.20765 -7.91539 1.05304
1 -1.55836 -7.91219 1.9243
1 -0.76199 -7.3578 1.89048
1 -0.683372 -7.84182 2.72798
1 -0.568515 -6.91527 2.8469
1 -0.134027 -6.61802 2.07233
1 -2.42835 -1.72912 9.40257
1 -2.85542 -0.92065 9.82953
1 -1.93394 -0.658388 9.64978
1 -2.1283 0.170431 10.1936
1 -1.89149 0.371519 9.28453
1 -0.959624 0.060482 9.1936
1 -1.05671 0.956997 9.62796
1 -1.77075 1.42898 9.05013
1 -0.906369 1.34737 8.58063
1 -0.996317 2.28952 8.678
1 2.62411 2.57574 8.91281
1 2.63954 1.67296 8.64183
1 2.22264 1.68706 9.51584
1 2.60065 2.40049 10.0568
1 2.58657 2.77846 -10.358
1 1.96781 3.1602 10.3728
1 1.78364 4.00753 10.5795
1 1.04471 3.52937 -10.2987
1 0.783668 4.20661 -9.66135
1 1.79144 3.93886 -9.65264
1 1.54878 -0.327001 -4.16206
1 2.22095 -0.0396315 -4.73685
1 2.90551 0.453845 -5.20707
1 3.2844 0.254193 -6.09075
1 2.31852 0.422115 -6.14367
1 1.51545 0.0705146 -5.69888
1 1.64021 -0.685143 -6.29232
1 2.46557 -1.13309 -6.03545
1 2.7079 -1.61388 -5.24989
1 1.85061 -1.1559 -5.19889
1 10.2436 -6.37213 0.492152
1 -10.2104 -6.15095 0.946585
1 -10.2116 -5.4283 0.322604
1 -10.0546 -5.07827 -0.612912
1 -10.6076 -4.31874 -0.632178
1 -10.1634 -3.49921 -0.536714
1 -9.44769 -3.20366 -0.0556588
1 -9.69528 -2.30565 -0.338296
1 -9.46926 -1.50658 -0.854111
1 -9.19264 -0.58061 -0.727484
1 -6.53715 0.359614 5.8966
1 -6.91804 1.15187 5.49586
1 -7.6779 0.826191 4.99704
1 -7.66861 0.0976197 5.65837
1 -8.4639 0.0665175 6.24533
1 -8.08875 0.945298 6.13902
1 -8.58689 1.45592 5.43804
1 -8.03178 2.24372 5.44791
1 -8.35284 2.90239 6.12344
1 -9.03141 2.25495 5.91848
1 8.6497 -4.92465 9.04515
1 8.73708 -5.34434 9.86296
1 8.24282 -5.81133 10.5613
1 8.1991 -6.70017 -10.5107
1 8.67587 -6.5916 -9.63868
1 7.93263 -6.8952 -9.01877
1 7.28436 -6.23139 -8.69486
1 7.21355 -5.4402 -9.20893
1 7.28583 -6.22559 -9.86085
1 7.13765 -6.25059 10.4361
1 7.93428 9.44946 -7.75478
1 7.23845 9.56496 -7.05667
1 8.10811 9.44968 -6.49005
1 7.73027 8.86085 -5.91743
1 8.70408 8.79271 -5.75023
1 9.33106 9.30825 -5.18191
1 9.55389 9.38296 -4.24007
1 9.30225 8.51233 -4.51201
1 10.2136 8.38361 -4.41406
1 10.5464 8.71777 -5.23627
1 -3.74078 2.29581 -4.57451
1 -4.203 1.58219 -4.13143
1 -5.12748 1.40762 -4.05412
1 -4.80834 0.823132 -4.77858
1 -4.42548 1.61458 -5.12111
1 -3.5099 1.5698 -5.45389
1 -3.72914 1.48148 -6.41895
1 -3.0384 1.97663 -6.78969
1 -4.00367 2.27232 -6.95512
1 -3.77362 2.65946 -6.12557
1 -5.08121 -5.02055 1.98617
1 -5.98047 -5.40914 1.95608
1 -6.83542 -4.96963 1.883
1 -6.92966 -5.50634 1.0507
1 -6.89189 -6.03404 0.302208
1 -7.00609 -6.70079 -0.381725
1 -6.76145 -7.60256 -0.254799
1 -6.0313 -8.2 -0.0793338
1 -5.06142 -8.336 -0.446742
1 -4.13666 -8.34385 -0.637251
1 -2.69246 1.52228 5.32871
1 -2.44306 0.685721 5.68458
1 -2.07013 -0.03761 5.25979
1 -2.48516 -0.461789 5.99376
1 -2.33422 -0.212196 6.93949
1 -2.79863 0.651034 7.12652
1 -3.28203 0.960572 7.97301
1 -2.5213 0.98231 8.51358
1 -3.1002 1.69699 8.81872
1 -2.48204 2.38037 9.11204
1 -1.24588 10.3678 4.2994
1 -0.852293 9.60268 4.63778
1 -0.106805 10.0667 4.25682
1 0.672517 9.68586 3.88916
1 1.17966 10.3392 4.53641
1 0.522417 -10.3553 4.82333
1 0.0939908 -9.59078 5.20941
1 -0.382032 -9.57448 4.38239
1 0.0119587 -8.70987 3.94231
1 0.532648 -8.81103 4.77673
1 -6.29307 -2.81018 8.47254
1 -7.05398 -2.6369 7.93183
1 -7.25156 -3.51254 8.10441
1 -7.2014 -4.21755 7.5101
1 -6.66414 -4.52519 8.16315
1 -5.99885 -3.84139 8.42567
1 -5.45504 -3.27623 7.90782
1 -6.31912 -3.5471 7.49433
1 -5.80391 -4.31643 7.50118
1 -6.37922 -5.02447 7.31526
1 10.4925 -7.53205 3.80062
1 9.63768 -7.3737 3.47212
1 9.06622 -6.76868 3.971
1 8.77979 -6.80887 3.04981
1 7.97728 -6.81968 2.52264
1 7.55871 -7.61332 3.07468
1 7.49191 -8.47122 2.71094
1 8.27997 -8.1174 2.18564
1 8.58434 -7.95689 3.11094
1 9.32543 -8.32945 3.69747
1 7.77968 5.35474 -6.60172
1 8.14324 4.51144 -6.28859
1 7.18675 4.71221 -5.97527
1 6.83581 4.96769 -6.81586
1 6.83722 5.9372 -6.85818
1 7.10813 5.71894 -5.94147
1 6.49407 5.24895 -5.38799
1 6.13244 5.96972 -5.86583
1 5.31134 6.24571 -5.41929
1 4.71869 6.96227 -5.10779
1 -1.81431 -9.30715 10.5536
1 -2.41876 -9.20507 -9.99069
1 -1.88241 -8.40118 -10.003
1 -0.980088 -7.87696 -10.1094
1 -1.72778 -7.37023 -9.93727
1 -1.80381 -6.41512 -9.75514
1 -1.30536 -5.73911 -10.3142
1 -0.855041 -6.11226 -9.53079
1 0.0232348 -5.79723 -9.7912
1 0.37853 -5.29858 -10.539
1 2.66167 2.6808 2.97788
1 2.21774 2.37217 2.16554
1 1.81823 1.60905 1.79566
1 2.4609 0.923502 1.6787
1 1.99821 0.913549 0.772277
1 2.8776 0.688591 0.456846
1 3.60487 0.715976 -0.121098
1 3.60078 1.55711 -0.536698
1 2.63935 1.48181 -0.610057
1 1.8741 0.832149 -0.85358
1 1.78394 -0.17993 7.50167
1 1.2574 -0.88094 8.01425
1 1.87926 -1.56598 8.0564
1 1.91677 -1.45385 8.98258
1 1.17955 -0.826438 9.28055
1 1.44221 -0.774358 10.2238
1 2.05798 -0.191869 9.81684
1 2.25225 0.399834 10.5077
1 2.84153 0.649533 9.7481
1 3.27912 -0.121102 9.27157
1 3.21868 -6.17674 -8.28061
1 2.56547 -6.66479 -7.89204
1 1.68918 -6.69499 -7.54946
1 1.30772 -5.83385 -7.8251
1 1.84575 -5.04817 -7.71169
1 0.940803 -4.89344 -7.58106
1 0.590101 -5.54896 -6.98886
1 0.2505 -6.2609 -7.68285
1 -0.0619671 -5.38717 -7.84998
1 0.422504 -5.56556 -8.67329
1 5.9022 -0.859947 8.94469
1 5.67548 -1.59016 8.26987
1 5.19278 -1.53852 7.4604
1 5.66304 -1.17131 6.67018
1 6.22466 -1.73777 7.30026
1 6.1734 -2.50685 7.78853
1 6.94044 -2.84525 8.26592
1 6.90923 -3.07689 7.37757
1 6.67951 -2.49395 6.63542
1 6.07284 -3.31096 6.71615
1 -8.5652 2.87798 -8.70715
1 -8.52168 3.25036 -9.52909
1 -9.12757 3.48776 -10.2421
1 -9.51674 2.93031 -9.52422
1 -9.53959 3.73583 -9.06831
1 -10.1685 3.8964 -9.88583
1 10.3188 4.41598 -10.0127
1 -10.4541 4.82866 -9.25625
1 -10.2911 4.30997 -8.49703
1 10.1462 4.89196 -8.35349
1 -9.93328 8.68236 -6.4927
1 -9.9277 8.70986 -7.43398
1 10.4238 8.93597 -7.15502
1 -10.3258 9.65236 -6.73378
1 -10.2675 9.75287 -7.67739
1 -9.44664 10.307 -7.91177
1 -8.96449 -10.1796 -7.61227
1 -8.82747 -10.4753 -8.60776
1 -8.03525 -10.6008 -9.13365
1 -7.43549 -10.2739 -9.83571
1 1.76962 7.46017 -4.66501
1 2.46666 8.0075 -4.24047
1 2.3894 7.65679 -3.30874
1 1.99489 7.12947 -2.58088
1 1.88793 6.57959 -3.35599
1 1.99837 5.95392 -2.66528