8000
Atoms. Timestep: 10000000
1 -7.55833 -4.65027 -6.42318
1 -8.00489 -4.06781 -5.85071
1 -8.87119 -3.46313 -5.88577
1 -8.35662 -3.04258 -5.25132
1 -8.39647 -2.05309 -4.89724
1 -7.96885 -1.38272 -5.43389
1 -7.18846 -0.997691 -5.09162
1 -6.55094 -0.656062 -5.76018
1 -7.46113 -0.550092 -6.0692
1 -7.62168 -0.184475 -6.88852
1 -7.61981 5.05354 -7.27507
1 -6.93398 5.26267 -6.66322
1 -6.00832 5.54073 -6.79524
1 -6.23769 4.76908 -7.19727
1 -6.36217 3.90484 -7.53664
1 -6.6168 3.28563 -8.20328
1 -5.83315 3.12052 -7.6396
1 -5.43246 3.64265 -8.3612
1 -5.86878 2.90171 -8.85455
1 -6.58764 2.31087 -8.88983
1 -1.65607 8.58725 7.51062
1 -1.98399 9.13455 6.83442
1 -1.77939 8.65212 6.00873
1 -2.17578 7.85162 5.74929
1 -2.27055 7.72491 4.77379
1 -3.09963 7.32376 4.86099
1 -4.12474 7.34238 4.89474
1 -4.50843 6.94733 5.72352
1 -4.62832 6.10316 5.3159
1 -5.61456 6.31781 5.43794
1 -0.26635 -1.91346 -4.54106
1 0.00447808 -2.89502 -4.54003
1 -0.903561 -3.02945 -4.49427
1 -0.951686 -3.50275 -5.3275
1 -0.550915 -3.39331 -6.252
1 -0.937317 -2.51304 -6.5223
1 -0.799525 -2.4371 -5.6118
1 -1.02539 -1.57725 -5.80763
1 -0.0997604 -1.60478 -5.76193
1 0.63812 -1.08691 -6.16214
1 -9.86954 0.824837 0.134603
1 -10.2041 1.54963 0.75957
1 -10.1763 2.04158 -0.104573
1 -10.4903 2.83439 0.311442
1 10.09 2.33242 -0.000595848
1 10.1906 2.42025 0.97172
1 9.6649 1.73659 0.65471
1 9.77343 0.995871 0.118696
1 9.74248 -0.0040764 0.0529504
1 8.86953 -0.469269 0.436634
1 -4.65418 8.72986 9.13946
1 -4.14309 8.41874 8.31112
1 -4.97686 7.98652 8.33376
1 -4.71507 7.10167 8.16375
1 -3.96081 7.05249 8.70005
1 -3.115 7.2407 8.20563
1 -3.9641 7.52934 7.74732
1 -3.40435 8.23184 7.48196
1 -4.04707 8.99495 7.36832
1 -4.44782 8.28607 6.95275
1 -10.1149 2.82463 7.19747
1 -10.4598 3.44149 7.76325
1 10.043 3.17751 7.43046
1 9.77822 3.63471 8.21855
1 8.98764 3.94586 7.93929
1 8.39187 3.21402 7.62316
1 8.54447 2.92481 6.70436
1 9.02475 2.44013 6.0562
1 9.5603 3.20366 6.3914
1 10.4652 3.04611 6.49381
1 -0.954256 -2.58696 5.95487
1 -1.19228 -3.43761 5.59364
1 -1.28078 -4.36298 5.58339
1 -2.09895 -4.52601 5.15281
1 -1.35186 -4.33851 4.59573
1 -2.03305 -3.66718 4.64748
1 -1.47393 -2.96499 4.46695
1 -1.51835 -1.99124 4.5614
1 -2.17126 -1.456 4.118
1 -2.46827 -1.5536 3.26394
1 -1.77064 -6.97212 -1.84916
1 -1.04153 -6.33669 -1.54816
1 -1.09121 -6.61834 -0.618531
1 -0.990206 -7.53414 -0.404562
1 -0.571576 -7.52334 -1.28053
1 0.012568 -6.99058 -0.671849
1 0.77455 -6.74767 -0.147441
1 0.985053 -6.53857 0.725022
1 0.384951 -5.87521 1.26159
1 0.526663 -5.3076 2.00912
1 0.841875 10.4394 -10.0057
1 1.10366 -10.6528 10.4755
1 0.961713 9.76865 10.324
1 1.13852 8.95678 -10.6008
1 1.4404 9.71761 -10.0981
1 0.538737 9.49462 -9.95618
1 0.394886 9.47641 -9.01855
1 -0.531476 9.2365 -9.34813
1 -0.708807 8.33159 -9.56704
1 -1.47543 8.80795 -9.73211
1 -4.78679 5.66568 1.45219
1 -4.28178 4.89113 1.26821
1 -3.56762 5.14527 1.80274
1 -3.72781 4.61889 2.6191
1 -4.64795 4.54058 3.10584
1 -3.89803 4.66487 3.71412
1 -4.16988 3.70515 3.60677
1 -4.3207 2.82449 3.82626
1 -4.3819 2.69229 2.89938
1 -4.81285 1.89049 3.17789
1 -5.74516 7.04694 0.969533
1 -5.3472 7.91361 0.886158
1 -5.70843 7.70728 0.0422804
1 -6.00889 8.62037 0.132142
1 -6.73414 9.34165 0.120988
1 -6.85936 10.2264 -0.147497
1 -6.88121 10.3915 0.776874
1 -6.01863 10.5063 0.58367
1 -5.23771 -10.3567 0.934066
1 -4.91405 -9.511 1.00547
1 4.33817 3.19622 1.1592
1 4.65837 2.32045 1.57301
1 5.63361 2.33984 1.76179
1 6.06503 2.25968 0.853126
1 6.70551 3.07973 0.742137
1 6.04256 3.74971 0.717491
1 6.14439 3.47987 1.6324
1 6.46623 3.76561 2.63863
1 6.32092 3.17426 3.37026
1 6.04543 4.04591 3.65327
1 2.85103 -4.89101 3.50566
1 3.07241 -5.8527 3.67852
1 2.97946 -5.90958 4.60514
1 3.80996 -5.62414 4.3725
1 4.3175 -6.4639 4.39093
1 4.87946 -5.73274 4.23593
1 5.1277 -4.95812 3.76523
1 4.37916 -4.34338 3.78873
1 4.13705 -5.10945 3.32125
1 4.20977 -6.0309 3.44291
1 7.41861 -1.01354 -2.57806
1 6.81949 -1.26403 -3.26175
1 6.5782 -1.99712 -3.85284
1 7.48628 -2.30613 -3.66828
1 8.40591 -2.54605 -3.43731
1 9.24152 -2.71632 -2.95573
1 9.57419 -3.11427 -2.19982
1 9.95036 -3.6749 -2.95245
1 -10.5555 -4.08057 -2.80819
1 -9.85884 -4.43547 -3.37325
1 -4.45418 -6.54361 9.52666
1 -3.90846 -5.93995 9.99533
1 -4.18401 -5.2384 10.555
1 -3.99873 -5.92342 -10.1648
1 -4.00355 -6.78803 -10.5092
1 -4.22615 -7.64059 10.4082
1 -5.20181 -7.95035 10.6424
1 -4.99055 -7.05198 10.3052
1 -5.11314 -6.51094 -10.2463
1 -4.85483 -6.02798 10.3338
1 -1.68696 6.1528 -5.09883
1 -1.11612 5.69118 -4.36457
1 -0.582178 5.61214 -3.54999
1 0.172438 5.02639 -3.34886
1 -0.0364203 4.08204 -3.3681
1 -0.465678 3.82893 -4.27866
1 0.430999 4.16308 -4.49209
1 0.533935 4.99421 -5.11292
1 -0.0761726 5.43277 -4.44838
1 -0.630991 4.90723 -5.07689
1 0.717344 9.33481 5.94133
1 1.55109 8.8743 6.03504
1 2.49489 9.14035 6.1707
1 3.13178 8.86523 5.51951
1 3.77357 8.6312 6.22256
1 4.19129 8.10029 5.53511
1 3.21339 7.83116 5.51615
1 2.30825 8.25339 5.63595
1 1.99606 7.50853 5.07299
1 1.36461 7.1893 4.46418
1 6.05515 1.39025 7.76164
1 5.47759 1.53849 6.98326
1 6.0693 1.39743 6.21714
1 6.44822 0.853066 5.42787
1 5.54191 0.558375 5.72535
1 4.60321 0.847024 5.60669
1 5.10621 1.6137 5.87864
1 4.64324 1.77709 5.08372
1 3.99576 1.80085 5.81586
1 3.67841 2.5914 6.17769
1 4.88098 -8.13401 1.88723
1 5.50914 -8.77209 2.384
1 4.5435 -9.0376 2.41348
1 4.21339 -8.56202 3.24623
1 4.10475 -9.34068 3.76089
1 4.54664 -9.10327 4.60667
1 3.6914 -8.74153 4.41807
1 3.26387 -8.03452 4.9745
1 3.30828 -8.82695 5.53804
1 3.37464 -9.56751 6.14454
1 -1.64055 -0.522988 7.7273
1 -2.59441 -0.169053 7.70131
1 -3.23004 -0.644411 8.31209
1 -3.53165 -0.610471 9.16626
1 -4.20325 -0.387719 9.74848
1 -4.58072 -0.933391 10.4442
1 -5.17858 -0.624909 9.77291
1 -5.33526 0.114746 10.3775
1 -5.14154 -0.301829 -10.1388
1 -4.28746 0.0929418 -10.1243
1 3.12139 6.99174 -9.01414
1 4.10309 7.14346 -8.78432
1 4.98315 7.11911 -9.07555
1 5.65691 6.53155 -9.50031
1 6.1666 6.25526 -8.69398
1 5.75958 6.91622 -8.0995
1 5.81924 7.14738 -7.18123
1 5.42935 8.00447 -7.52989
1 6.30617 8.25262 -7.91463
1 5.59666 8.906 -8.06923
1 -10.5109 3.06903 -10.6664
1 9.98241 3.515 10.353
1 9.94535 3.8423 9.49257
1 9.91416 2.92916 9.30712
1 -10.6525 2.27667 9.341
1 -10.3822 1.6724 8.57642
1 -9.93657 2.52428 8.48944
1 -9.83127 3.43626 8.66117
1 -9.01944 4.09488 8.7062
1 -8.28383 3.68046 8.36784
1 -2.39728 4.86025 10.0092
1 -2.26457 5.72402 9.6361
1 -1.63395 5.49498 10.4992
1 -2.49508 5.64112 -10.4509
1 -2.66609 6.44167 10.3523
1 -2.18578 7.07434 9.72109
1 -3.0105 7.32064 9.32697
1 -3.48042 6.43721 9.31659
1 -2.95552 6.17567 8.53232
1 -2.5497 5.89593 7.662
1 -0.524244 5.57041 6.03497
1 -1.36563 6.05192 5.81008
1 -1.04001 6.32976 4.96873
1 -1.18738 7.23095 4.70078
1 -1.40527 7.15595 5.66849
1 -0.531741 7.49652 6.1075
1 -0.908376 8.13071 6.65776
1 -0.812456 8.94321 7.01748
1 -0.510863 9.35101 7.85284
1 -1.31214 9.6995 8.36967
1 9.70882 7.61215 -3.06374
1 -10.6662 7.69491 -2.84896
1 10.0831 8.33273 -2.49606
1 -10.5643 8.76072 -3.00722
1 10.0358 9.29913 -2.90064
1 10.5664 9.14564 -2.07508
1 -10.4455 9.58144 -1.33906
1 -10.2929 10.3462 -0.754033
1 -9.41127 10.4029 -0.450413
1 -8.57722 -10.479 -0.419688
1 7.10586 0.637494 9.70355
1 6.39173 0.26625 9.24908
1 5.80447 0.524148 8.58257
1 5.19392 0.316968 7.92223
1 4.47158 -0.0884486 7.41644
1 3.73905 -0.22891 6.93915
1 4.12755 -1.11043 7.16957
1 3.52055 -1.5737 6.55342
1 2.90495 -0.907313 6.1695
1 2.02697 -1.25119 6.18751
1 -10.2508 10.07 3.29348
1 -9.68475 10.6635 2.77516
1 -9.20336 10.0681 3.34558
1 -8.37518 9.71985 3.31935
1 -8.4517 10.2036 4.13654
1 -9.41735 10.266 4.31722
1 -9.85386 -10.2328 4.18005
1 10.556 -10.2428 4.05554
1 10.6505 -10.2622 4.99547
1 10.1916 10.2284 5.16649
1 -1.67692 4.76025 0.904218
1 -1.43999 5.53639 0.438267
1 -1.85032 5.98194 -0.327134
1 -2.5743 6.3257 -0.784403
1 -2.53641 7.08627 -1.2925
1 -1.67225 6.74853 -1.12273
1 -0.932045 7.28351 -0.669926
1 0.0714243 7.18328 -0.945994
1 -0.155924 7.75826 -1.67839
1 -0.45045 8.73329 -1.8306
1 -9.79735 4.39505 9.46666
1 -10.3029 4.3221 10.2976
1 -10.3285 3.50272 9.76765
1 -9.30219 3.53549 9.58575
1 -9.54038 3.59908 10.5624
1 -8.7133 3.11476 10.3663
1 -7.94831 2.51587 10.3712
1 -8.01002 2.17177 9.45977
1 -8.83076 1.85312 9.83933
1 -9.65881 2.25441 9.94743
1 7.39597 2.16852 -3.22698
1 7.32459 1.41794 -3.82509
1 8.01679 1.85584 -4.22687
1 8.60601 2.00178 -3.44902
1 9.22776 2.41848 -4.09364
1 9.99724 2.30555 -4.56478
1 10.573 1.63731 -5.0425
1 10.0388 0.881013 -4.78794
1 10.6585 0.667666 -5.5271
1 -10.1737 0.609875 -4.7579
1 -9.87855 -8.84765 -3.66208
1 -10.4983 -9.42626 -4.05453
1 -10.6589 -9.60478 -3.12611
1 9.85663 -9.10939 -2.7443
1 10.1043 -8.39437 -2.1804
1 9.97386 -8.35708 -1.25824
1 10.6216 -7.98385 -0.647775
1 10.4177 -7.12373 -1.01042
1 9.70386 -7.33945 -1.64075
1 8.89532 -7.90215 -1.54098
1 1.72762 5.06427 9.09837
1 1.474 5.38401 8.17134
1 0.952589 4.56946 8.40125
1 0.439837 4.57393 9.27405
1 0.195905 5.2342 8.62585
1 -0.6824 5.65096 8.52919
1 -0.699573 4.73039 8.2438
1 -0.546741 4.1067 8.96455
1 -1.40738 3.81907 9.30047
1 -1.38002 4.50244 9.91995
1 5.08269 -8.92634 -10.365
1 5.72643 -9.29507 10.3554
1 5.87286 -8.95474 9.42998
1 6.82055 -9.28548 9.46979
1 6.99913 -10.267 9.35015
1 7.10622 10.1149 9.46088
1 6.95752 9.46447 8.70197
1 6.33684 10.1681 8.71498
1 5.87458 10.61 9.49871
1 5.86358 -9.96548 8.97028
1 10.3658 4.41879 -2.72742
1 -10.0906 4.55734 -2.79788
1 -10.1027 3.81101 -2.23949
1 -9.76079 2.93714 -1.89487
1 -8.82807 2.74852 -1.99892
1 -8.18737 2.40135 -2.62436
1 -8.95608 2.86188 -2.99394
1 -9.58292 2.91231 -3.76578
1 -10.1921 3.64521 -3.36847
1 -10.3122 2.75418 -2.89158
1 4.58698 0.226868 3.86529
1 4.86434 -0.664606 3.5385
1 4.55482 -1.57817 3.80934
1 3.66968 -1.44854 4.17962
1 2.80341 -1.93589 4.13907
1 2.66356 -0.995637 4.15193
1 2.7399 -0.778454 5.09228
1 3.40501 -1.49105 5.17209
1 3.76179 -0.72887 5.59888
1 3.28979 0.0751583 5.62309
1 -8.04722 -0.99555 -8.03497
1 -7.86346 -1.27656 -8.93345
1 -7.2891 -0.550447 -9.0611
1 -7.34673 -0.290134 -8.17612
1 -8.10429 0.313257 -7.88795
1 -8.60357 1.13336 -7.88382
1 -9.51471 1.41979 -8.09753
1 -8.8926 2.17161 -8.02586
1 -8.80646 2.92411 -8.64488
1 -8.6631 3.87931 -8.59738
1 -1.8149 0.169705 2.60463
1 -1.92148 -0.717181 3.15943
1 -1.32211 -1.32478 2.70245
1 -0.592304 -1.64503 3.31037
1 -0.803165 -2.50717 3.64498
1 -1.56118 -2.14507 3.27224
1 -2.34773 -2.69337 3.29262
1 -2.79749 -3.33309 3.82167
1 -3.67323 -3.05408 3.77905
1 -3.10726 -2.6538 4.47755
1 -5.01167 -6.95165 8.25843
1 -5.0583 -6.31743 7.46715
1 -5.63429 -5.66222 7.82045
1 -6.46065 -5.51467 8.32916
1 -7.26957 -5.27934 8.71239
1 -7.85647 -4.48124 8.9834
1 -7.47068 -3.82099 8.41406
1 -8.05607 -3.97225 7.62285
1 -8.66228 -3.54227 8.27712
1 -9.17196 -3.66886 9.10234
1 1.52887 3.18769 -0.161972
1 0.68961 2.59008 -0.24875
1 0.43827 3.54653 -0.117172
1 0.0314046 4.32365 -0.505015
1 0.575352 4.95206 -0.115359
1 0.821051 4.8636 -1.07974
1 0.322311 5.64792 -1.28243
1 -0.383716 5.17235 -0.903046
1 -0.736151 5.74217 -0.236827
1 -0.311332 6.60425 -0.131105
1 1.52819 -1.35389 -8.26561
1 1.72452 -1.77413 -7.3704
1 1.03197 -1.0793 -7.31656
1 1.60285 -0.445817 -7.71272
1 1.30519 0.43075 -7.93131
1 2.25966 0.441207 -8.10707
1 1.98782 -0.269444 -8.71002
1 2.87434 -0.196975 -9.11809
1 3.66426 -0.46119 -9.54943
1 4.31977 -0.0151477 -10.0634
1 -8.60309 0.0498381 0.375279
1 -8.82752 -0.35467 1.30339
1 -8.35262 0.510896 1.45274
1 -9.09295 0.865936 1.03235
1 -9.58961 1.37626 1.60794
1 -8.72642 1.42416 1.97288
1 -7.95319 1.93312 2.12216
1 -8.02784 2.79032 2.4235
1 -7.8985 3.02287 1.53372
1 -7.4334 3.16124 0.613364
1 -10.2755 -7.819 -3.72238
1 10.5649 -6.96192 -3.53291
1 10.1316 -7.32779 -2.70063
1 -10.38 -6.8883 -2.48788
1 -10.1324 -7.74773 -2.58166
1 -10.471 -8.65222 -2.81041
1 10.6127 -9.24768 -1.98813
1 9.84374 -9.33462 -1.47435
1 9.06755 -8.92216 -1.85353
1 8.94551 -9.6352 -1.22462
1 7.89905 -9.49952 -3.02278
1 8.65427 -9.65985 -2.4674
1 9.21866 -9.77345 -3.245
1 8.87428 -8.8835 -3.25758
1 8.02254 -8.30996 -3.2232
1 8.20518 -8.6565 -2.28501
1 7.26956 -8.55319 -2.26527
1 6.79864 -9.21382 -2.79375
1 5.99734 -9.00586 -2.21963
1 5.70829 -9.94547 -2.36325
1 0.968575 2.99183 6.60301
1 1.07793 2.19488 6.05421
1 1.8328 1.64819 6.14874
1 1.73549 0.729623 5.77172
1 2.26942 -0.0626987 5.84604
1 2.73203 0.783932 6.08401
1 2.13153 0.819334 6.83744
1 1.43006 0.201578 6.97471
1 1.2337 -0.504712 6.33981
1 0.349682 -0.504378 6.71028
1 0.76228 -8.81601 2.96856
1 1.51589 -9.32858 3.29382
1 1.54151 -8.47287 3.73512
1 2.17961 -7.73795 3.71239
1 2.34431 -8.23525 2.88814
1 3.05199 -8.76889 3.21836
1 2.6496 -9.49046 3.79852
1 2.56841 -10.1782 3.1584
1 2.98684 10.5549 2.49622
1 3.75002 10.4193 2.00476
1 -9.83301 6.73484 6.95013
1 -10.6391 6.97309 7.36189
1 -10.0997 6.82456 8.1065
1 -10.0108 7.6693 8.44569
1 -9.75808 7.17773 9.19616
1 -10.2096 6.41738 9.53084
1 -9.90721 6.61889 10.4601
1 10.5061 6.95959 10.1732
1 9.99345 7.05669 9.36832
1 10.6417 7.78616 9.45853
1 -8.4742 5.15518 0.665727
1 -8.75964 5.17413 1.69052
1 -8.50235 5.6369 2.52195
1 -8.24648 5.57525 3.40018
1 -7.44811 5.11376 3.50203
1 -6.56358 4.73561 3.74065
1 -6.97856 4.08299 4.31747
1 -6.20157 3.7423 3.91441
1 -6.0289 3.13086 4.62266
1 -5.20171 3.47331 4.32476
1 2.04611 -3.07094 -10.1532
1 2.03972 -3.95985 -9.81
1 1.28172 -4.29971 -10.1486
1 1.47771 -3.90086 10.4052
1 0.902273 -4.3878 9.73281
1 1.52427 -4.96144 10.1494
1 1.49284 -5.84788 10.482
1 1.62744 -6.7373 -10.4818
1 1.36219 -7.53986 -10.0064
1 0.542326 -7.32741 -9.51046
1 0.73206 6.92353 -6.89984
1 1.47818 6.33578 -6.63652
1 1.31455 7.09623 -6.03281
1 2.07646 7.38135 -5.49321
1 1.33547 8.03626 -5.6667
1 2.14558 8.43191 -5.80785
1 2.2074 8.0753 -6.69885
1 2.21091 7.35137 -7.39066
1 1.31988 7.76405 -7.45722
1 1.38159 8.38354 -6.78432
1 -4.85101 2.93906 -7.66719
1 -4.82526 2.98154 -6.69964
1 -4.21746 2.16551 -7.03578
1 -3.83218 3.04433 -7.31546
1 -4.08249 3.92315 -7.49998
1 -3.49599 4.72601 -7.47908
1 -2.60268 4.68822 -7.82652
1 -2.19147 4.91157 -8.65157
1 -3.21287 4.95743 -8.84134
1 -4.21181 4.91025 -8.87376
1 -0.231319 2.46977 -5.34752
1 -0.0865816 2.1638 -6.25545
1 0.848127 2.34869 -5.93197
1 0.308614 3.08823 -6.00033
1 0.035746 3.89308 -6.31378
1 0.161252 4.44781 -7.07527
1 1.07269 4.32094 -6.89109
1 1.04257 4.49063 -6.01643
1 1.10732 5.3236 -6.47325
1 1.2332 5.63806 -5.60345
1 8.84039 6.58805 -8.72672
1 8.13233 6.05946 -9.14306
1 8.01749 5.74844 -10.0094
1 7.21277 5.37295 -9.54802
1 6.35061 5.80909 -9.6163
1 5.4712 5.58896 -9.22965
1 4.90204 5.51005 -9.89718
1 4.23364 4.9249 -10.4053
1 3.86012 4.32498 -9.78067
1 3.09813 4.90353 -10.1328
1 9.5627 -9.3101 6.65121
1 8.98538 -8.91055 7.38956
1 9.01697 -9.01305 8.36067
1 9.50401 -9.73276 7.93229
1 9.703 -9.96084 8.85456
1 9.96909 -9.03076 8.89447
1 -10.4114 -8.74133 9.17919
1 -9.88057 -8.04035 8.62943
1 -9.60555 -7.10637 8.40409
1 -9.90175 -6.30734 8.84176
1 -9.60773 5.44042 9.92551
1 -10.5153 5.42532 10.0554
1 10.5339 4.78848 9.29342
1 10.1337 5.15286 8.44169
1 9.42325 4.98103 7.78139
1 8.55995 4.84943 8.2298
1 8.24908 5.44979 7.49803
1 8.23646 6.36667 7.36914
1 8.08887 6.80444 6.51745
1 7.77141 7.29378 7.32167
1 -9.49349 -3.91404 -0.0911398
1 -10.2997 -3.55277 0.229251
1 10.2789 -3.54342 0.869164
1 9.88777 -3.76303 0.05596
1 9.30129 -3.08524 0.443737
1 8.92248 -2.84672 -0.448218
1 9.0088 -2.11253 0.183457
1 9.70058 -1.48158 0.254156
1 10.2771 -0.901719 -0.145184
1 -10.5856 -1.58682 0.396175
1 8.24603 -10.0421 -3.73715
1 8.92487 -10.6256 -4.04757
1 9.83695 10.6124 -3.68645
1 10.0949 -10.0648 -4.29675
1 -10.6656 -9.97091 -5.03081
1 10.168 10.6542 -5.60695
1 9.69642 -9.85188 -5.81102
1 9.29443 -8.96813 -5.89083
1 8.53606 -8.71425 -6.45592
1 7.67894 -9.01481 -6.71559
1 10.4441 -0.980497 -8.29222
1 -10.6188 -0.639075 -9.17757
1 9.8364 -1.06932 -9.13433
1 9.12545 -1.02135 -8.54366
1 8.88748 -1.1991 -9.44415
1 8.62842 -2.10876 -9.35355
1 8.31499 -2.72242 -10.0334
1 7.71283 -2.15731 -10.4655
1 7.14997 -1.33104 -10.6268
1 6.81839 -2.06871 -10.0057
1 -6.52025 5.71849 10.3876
1 -5.47329 5.73615 10.5372
1 -5.37988 6.64664 -10.6392
1 -5.97544 7.15673 -10.0149
1 -6.35568 7.72209 10.5949
1 -7.15208 8.15546 10.3982
1 -6.35263 8.54718 9.82983
1 -5.73843 8.19493 9.21766
1 -5.90595 8.77053 8.49422
1 -5.54812 9.3684 9.12618
1 0.488557 0.361713 6.2882
1 0.84989 1.22784 6.65084
1 1.2889 1.84497 7.24776
1 0.487183 1.56495 7.75163
1 -0.382538 1.6464 7.38235
1 -0.562486 0.78586 7.8024
1 -0.848192 1.19332 8.5912
1 -0.309372 0.399604 8.72995
1 0.485153 0.533815 8.18357
1 0.337797 0.453864 7.26883
1 -2.66497 4.86627 2.69203
1 -1.93648 4.15818 2.85207
1 -1.08821 4.36793 2.42022
1 -1.43945 5.06111 1.86606
1 -1.27917 5.991 1.65858
1 -1.04491 6.46466 2.52175
1 -0.452505 6.29657 3.21862
1 -0.974997 6.19358 3.92131
1 -1.72463 5.92218 3.29903
1 -1.49776 4.96929 3.32706
1 9.12987 -9.46946 -4.95454
1 8.40825 -9.27288 -5.51358
1 8.51406 -8.2664 -5.40271
1 7.75603 -7.98088 -5.9662
1 6.88398 -7.75867 -5.67911
1 7.09202 -7.27833 -6.50242
1 7.67377 -7.75722 -7.01084
1 7.07535 -7.67904 -7.73975
1 7.84236 -7.09497 -7.8476
1 7.6782 -7.40625 -8.69658
1 -2.31982 9.29256 3.05764
1 -3.09893 8.63739 3.26171
1 -3.84403 8.55389 2.71499
1 -4.36121 9.34222 2.53586
1 -5.31292 9.0253 2.59923
1 -5.77045 8.86791 3.41832
1 -5.03581 8.23691 3.18967
1 -4.39821 8.08264 3.96543
1 -4.59294 8.31915 4.88613
1 -4.70486 8.13608 5.86894
1 5.69155 -3.75979 -8.86668
1 5.26061 -4.4488 -9.42692
1 5.50627 -4.90104 -8.55738
1 6.10749 -4.32892 -7.9973
1 6.9519 -4.18434 -7.41835
1 6.92789 -3.55286 -6.74501
1 6.9743 -2.92874 -6.00047
1 7.25179 -2.42062 -5.27274
1 7.37286 -1.44286 -5.03943
1 7.93036 -1.67126 -4.31588
1 9.80536 1.3399 -5.68893
1 10.5922 1.66626 -6.18734
1 9.69077 2.01167 -6.49134
1 8.93944 2.24533 -7.13885
1 8.04689 2.2466 -6.73046
1 7.22261 1.77295 -6.48968
1 7.07031 2.34238 -7.30467
1 6.29158 2.52582 -6.82635
1 6.2277 2.67357 -7.74245
1 6.41301 3.39766 -8.36347
1 -2.86785 -4.98707 -2.31928
1 -3.2035 -5.84356 -2.70376
1 -3.16721 -6.36572 -3.46226
1 -2.25703 -6.59617 -3.45864
1 -2.70893 -6.22167 -4.24973
1 -2.6134 -5.51297 -3.58143
1 -2.09268 -4.89646 -3.10956
1 -1.27051 -4.98608 -3.60286
1 -1.01225 -4.10424 -3.2321
1 -0.531832 -4.39588 -2.5324
1 -1.44108 2.86648 -4.69227
1 -2.24541 3.44554 -5.01765
1 -2.78977 3.37185 -4.1577
1 -2.72969 4.3772 -4.01567
1 -2.48967 5.28362 -4.26439
1 -1.6707 5.02539 -3.76669
1 -0.842154 4.71626 -4.03409
1 -1.47999 3.97376 -3.93845
1 -1.78422 4.30611 -4.80553
1 -1.71173 5.10147 -5.26254
1 -8.54666 3.27534 0.497808
1 -8.43919 4.02319 1.20234
1 -7.63515 4.59247 1.18321
1 -7.56419 5.55349 1.33905
1 -7.02471 6.32544 1.58849
1 -6.83845 6.57504 0.616327
1 -7.5361 6.90761 0.127038
1 -7.14723 6.7002 -0.712855
1 -6.44714 6.43712 -1.45623
1 -6.63508 5.90066 -2.21952
1 -1.06773 -7.22126 -7.35022
1 -1.56714 -8.01459 -6.94999
1 -2.3745 -7.47261 -6.82489
1 -3.00766 -8.18478 -7.00592
1 -3.79806 -8.51421 -6.58558
1 -3.35809 -8.09867 -5.8065
1 -2.41618 -8.44322 -5.78306
1 -2.86791 -9.19146 -5.39163
1 -2.27378 -9.48032 -6.09402
1 -1.45493 -8.79926 -6.06477
1 4.30866 -8.62832 -1.25191
1 3.74101 -8.36733 -0.506019
1 4.37877 -8.68626 0.320554
1 4.58674 -7.81342 -0.224409
1 3.80251 -7.3044 -0.453964
1 3.77705 -6.9196 -1.33344
1 3.65222 -7.03392 -2.42921
1 3.52693 -6.10467 -2.32205
1 4.52237 -6.21732 -2.4915
1 4.54402 -6.01771 -1.57184
1 -2.22655 -7.36605 7.77389
1 -2.38102 -7.24989 8.69403
1 -2.37886 -8.18147 8.71591
1 -1.565 -8.71186 8.80736
1 -1.97269 -8.84233 7.93911
1 -2.34336 -9.13528 7.14347
1 -2.36547 -9.77953 6.36672
1 -2.77509 -10.0148 7.23383
1 -3.34608 -9.6131 6.61931
1 -3.52295 -10.5206 6.44182
1 -5.72184 1.93409 -6.55071
1 -5.8676 2.75227 -5.97621
1 -6.81979 2.66487 -6.15881
1 -7.42911 2.38813 -5.29124
1 -6.51605 2.42954 -5.03555
1 -6.52438 1.47621 -4.69637
1 -7.40293 1.74227 -4.41998
1 -7.74074 1.33546 -5.23218
1 -6.88141 1.2296 -5.63199
1 -7.11493 0.517172 -4.97494
1 8.83511 -0.102422 -2.32649
1 9.04173 0.848536 -2.53877
1 9.19322 1.79232 -2.5315
1 9.9801 1.2153 -2.68821
1 10.2982 0.354727 -2.73438
1 9.68115 0.600102 -3.49612
1 9.30742 0.306438 -4.35084
1 8.54159 0.845806 -4.36776
1 7.81352 0.9153 -4.95233
1 8.62579 0.913527 -5.35882
1 -0.631054 -5.18292 3.92276
1 -0.820721 -5.71435 4.70859
1 -1.77384 -5.34545 4.53311
1 -2.71389 -5.31639 4.35277
1 -3.27952 -4.55402 4.12815
1 -4.19131 -4.73217 3.75335
1 -3.73118 -4.13728 3.24105
1 -2.86771 -3.91439 2.91748
1 -2.12169 -4.17474 3.48247
1 -1.6568 -5.00506 3.55713
1 -7.50695 10.3358 -3.62273
1 -7.6893 -10.0641 -3.72993
1 -7.89863 -10.3512 -4.56063
1 -8.78868 -10.6206 -4.60219
1 -8.52854 -9.75964 -4.95651
1 -8.84507 -9.02765 -4.33293
1 -8.43833 -8.21801 -4.06316
1 -8.15499 -7.29952 -4.11062
1 -8.18888 -6.5167 -3.54019
1 -7.81455 -6.42039 -4.36251
1 5.96687 10.3845 -8.3611
1 5.45682 -10.3661 -7.82717
1 6.33636 -10.0501 -7.59284
1 5.92834 10.6568 -6.9806
1 5.32769 10.3824 -6.2723
1 4.56986 10.0886 -5.73732
1 4.09746 -10.374 -5.84216
1 4.07331 -9.42479 -5.39414
1 4.20203 -8.70734 -6.11767
1 3.95916 -9.57429 -6.51605
1 10.251 4.07936 -7.42091
1 -10.6497 4.97554 -7.47386
1 10.2714 5.60436 -6.95898
1 9.95804 6.28684 -6.41955
1 9.15846 5.90367 -6.13476
1 8.46385 6.55442 -6.02765
1 7.83042 5.90123 -6.22222
1 7.38163 6.33484 -5.40188
1 7.22357 6.43705 -4.43195
1 7.31751 6.73105 -3.48861
1 7.38237 -5.98289 -4.61511
1 6.97642 -5.42659 -3.92723
1 7.47425 -4.58242 -3.7905
1 6.78606 -4.49411 -3.14899
1 6.93126 -3.56737 -3.09665
1 6.32305 -2.81118 -3.08859
1 6.12981 -3.66932 -2.54728
1 6.26333 -2.87229 -2.01425
1 5.33723 -3.20295 -2.21254
1 5.42926 -2.36498 -2.59073
1 -9.02156 8.7061 4.69491
1 -8.93218 8.13188 3.91614
1 -9.40322 8.82001 3.40492
1 -9.07572 8.06604 2.85792
1 -8.16487 8.38129 3.05814
1 -7.20666 8.02227 2.95492
1 -7.17482 8.97666 2.84591
1 -6.31346 9.3847 2.56708
1 -6.23731 10.3034 2.75353
1 -5.27958 10.1872 2.83886
1 0.393972 1.34014 10.1532
1 -0.518839 1.77057 10.3583
1 -0.97521 2.42604 -10.3958
1 -0.318625 2.59941 -9.72331
1 0.266764 3.40505 -9.90327
1 0.281739 4.25073 -10.3729
1 0.102935 4.53852 -9.44019
1 -0.757381 4.92804 -9.60348
1 -0.797978 4.63187 -10.5745
1 -0.417723 4.80593 9.90247
1 -5.22251 5.3578 -8.20775
1 -4.77421 6.12602 -7.9345
1 -5.02327 5.956 -7.0118
1 -4.29178 5.3767 -7.31162
1 -4.13154 4.8767 -6.40749
1 -4.14414 3.86614 -6.25278
1 -4.03328 4.02273 -5.2978
1 -3.71956 4.88923 -5.45089
1 -3.63233 4.56659 -4.56653
1 -4.05279 4.9477 -3.73393
1 0.146238 2.28464 4.53034
1 -0.40629 2.54668 3.80288
1 -0.594264 1.9872 3.04701
1 -0.872521 2.30351 2.18777
1 -1.61416 2.39968 2.84653
1 -1.46616 2.44888 3.76478
1 -1.87921 3.28112 4.09275
1 -2.37744 2.44443 4.23748
1 -3.27414 2.35215 4.53447
1 -3.72151 2.24189 5.36733
1 -3.32315 8.90488 0.330207
1 -3.9655 8.46845 -0.242087
1 -4.86017 8.08325 -0.445896
1 -5.08594 8.95802 0.0213287
1 -5.40201 9.91291 0.101516
1 -5.06746 -10.4879 -0.0361437
1 -4.19858 -10.401 -0.490177
1 -4.57466 10.6207 -1.29621
1 -4.16064 9.83536 -1.74036
1 -3.55916 10.5702 -1.96656
1 -1.88223 1.70572 -9.65721
1 -2.54118 2.32458 -9.3678
1 -2.94497 1.55498 -9.77873
1 -3.57479 0.773008 -9.79258
1 -2.86257 0.774118 -9.03712
1 -3.09152 1.62848 -8.57041
1 -2.69552 2.46466 -8.21969
1 -3.16043 3.09571 -8.88095
1 -3.51198 3.89327 -8.52238
1 -2.44806 3.80562 -8.5331
1 -1.45079 -4.75013 1.51562
1 -1.69285 -4.7807 2.46791
1 -2.13458 -4.05456 2.08542
1 -2.9793 -3.89408 1.59562
1 -2.49014 -3.31026 1.03334
1 -2.589 -3.71185 0.106369
1 -1.63448 -3.5951 0.108771
1 -1.57539 -4.45558 0.416042
1 -2.46089 -4.44644 0.866011
1 -2.33027 -5.38393 0.656842
1 8.9939 10.3206 8.76254
1 9.04531 9.5043 9.18654
1 9.12647 10.1723 9.85137
1 9.92487 10.399 9.37095
1 10.406 10.0827 10.118
1 -10.2917 10.6402 9.78984
1 -9.4067 -10.3242 9.85988
1 -8.67755 -10.527 10.4016
1 -7.80864 -10.0895 10.2864
1 -7.08885 -9.5484 -10.6197
1 0.345965 2.93058 2.78247
1 0.529824 3.79632 2.62188
1 0.157094 3.87348 1.71192
1 0.62155 3.85636 0.883731
1 1.22326 4.15249 0.147771
1 2.11251 3.99053 0.432913
1 1.85896 4.44873 1.21194
1 2.67117 4.50619 1.66566
1 2.80987 3.56075 1.61854
1 3.60367 4.04234 1.78898
1 -10.0773 0.920324 -1.19975
1 10.4043 1.12019 -1.5697
1 9.63502 0.674922 -1.16054
1 8.88734 0.0925838 -1.10396
1 8.37976 0.631512 -0.546617
1 8.78602 1.44555 -0.341355
1 9.25579 2.28136 -0.614357
1 8.54862 2.63432 -1.16967
1 8.04665 1.90726 -1.47451
1 8.19941 2.04886 -2.37917
1 6.85954 0.715078 7.44512
1 6.06692 0.500185 7.01111
1 6.65784 0.156798 6.35845
1 5.86314 -0.329806 6.23135
1 6.05406 -1.24491 6.24184
1 6.89082 -1.42998 5.86413
1 7.1444 -1.64923 5.02429
1 6.4212 -2.1999 4.98266
1 5.8517 -1.48289 5.07226
1 5.27777 -0.836534 5.43542
1 -6.04184 -1.97432 -6.01563
1 -5.57339 -1.15771 -6.18989
1 -5.16341 -1.13106 -6.9974
1 -4.55458 -1.69241 -6.50068
1 -4.34756 -1.27115 -5.69112
1 -4.01175 -0.44497 -6.25609
1 -3.96859 0.501826 -6.34571
1 -4.5805 1.18335 -6.54507
1 -4.5757 1.97784 -5.9594
1 -3.7731 1.5027 -6.00635
1 4.35984 -0.840594 -8.93398
1 5.2043 -1.26324 -9.24142
1 5.33109 -0.608809 -10.0004
1 5.81917 -0.323501 -9.19163
1 6.43072 0.363896 -9.08077
1 5.73814 0.644039 -9.62403
1 4.90587 0.971452 -9.57649
1 4.93063 0.117371 -9.08095
1 4.26409 0.0474743 -8.36499
1 5.08541 -0.439014 -8.2979
1 -0.67802 -2.3465 7.81551
1 -1.36307 -2.65269 8.37594
1 -0.439408 -3.04999 8.60121
1 -0.357485 -3.39924 7.70445
1 0.1015 -3.78037 7.00892
1 0.787199 -4.4236 7.04356
1 1.07081 -3.92761 7.82639
1 0.814069 -4.58472 8.49251
1 0.510083 -5.20967 9.12504
1 -0.0123965 -5.36832 8.28302
1 -1.97656 -0.9411 8.64744
1 -2.39838 -1.4001 9.36218
1 -2.15798 -0.485275 9.52522
1 -1.76253 0.195282 8.95757
1 -1.64916 0.760348 8.15635
1 -2.33621 1.23198 7.76827
1 -1.82462 0.921469 6.90626
1 -2.7214 0.563258 6.97308
1 -2.64922 1.15574 6.18761
1 -3.34707 1.81954 6.27543
1 -9.90254 -9.94982 -6.90763
1 10.5122 -10.0215 -6.55385
1 -10.6696 -9.10537 -6.26818
1 -9.70718 -9.18014 -6.19576
1 -9.6104 -8.50794 -5.47572
1 -9.83031 -8.38711 -4.51903
1 -9.38053 -7.53848 -4.6125
1 -9.29717 -7.67969 -3.68861
1 -9.22279 -6.89862 -3.10582
1 -8.64396 -6.45487 -2.54437
1 4.18789 -3.46233 3.37629
1 4.93725 -3.67097 2.91716
1 5.27277 -3.78743 2.01094
1 4.87329 -3.58803 1.13564
1 4.88355 -2.66994 1.39347
1 5.78106 -2.32248 1.76809
1 6.0428 -2.2988 2.7427
1 5.7247 -3.0487 3.29126
1 5.01931 -2.45893 3.04354
1 5.44416 -1.59128 2.91439
1 -5.37669 -5.39738 9.52113
1 -5.42037 -4.88129 10.3025
1 -5.44118 -4.3288 9.49196
1 -4.58613 -4.31806 8.99643
1 -4.98539 -3.45917 9.22073
1 -5.17662 -3.55865 8.26077
1 -4.27696 -3.73518 7.95501
1 -4.23864 -4.67778 7.98332
1 -3.4585 -5.08825 8.19675
1 -4.07739 -5.90335 7.79027
1 4.89933 -8.26076 4.0023
1 5.72367 -8.00471 4.46594
1 6.15584 -8.69733 4.87688
1 5.30434 -8.97703 5.36324
1 5.70832 -9.28632 6.18061
1 5.95867 -8.57047 6.8196
1 6.03394 -8.35853 7.75554
1 5.62812 -9.17916 8.10526
1 5.51294 -9.52692 7.17596
1 5.75043 -10.2098 6.55949
1 6.86554 -6.04019 3.86946
1 7.74682 -6.31951 4.24274
1 7.78685 -6.3881 5.20712
1 8.53601 -6.89524 4.83965
1 9.09575 -7.61832 4.62894
1 9.85585 -7.1231 4.43799
1 9.97191 -6.33743 3.81797
1 9.45887 -5.62491 4.20625
1 8.53301 -5.56956 4.02578
1 8.81015 -5.71748 4.98011
1 -7.50255 5.13836 -4.21403
1 -8.36962 5.48433 -4.25385
1 -8.77241 5.92007 -3.50849
1 -7.96884 5.5531 -3.23236
1 -8.4924 5.07979 -2.59813
1 -8.76206 4.21208 -2.26277
1 -9.1757 4.95205 -1.78083
1 -9.88353 4.47156 -1.51092
1 -9.50914 4.64306 -0.584919
1 -9.36758 3.78062 -0.204905
1 3.40469 -3.00048 8.02468
1 4.01364 -3.72019 8.2796
1 3.41935 -4.26889 7.89033
1 4.16644 -4.73151 7.53093
1 3.51906 -5.37471 7.87932
1 3.17324 -6.27705 7.89361
1 3.33117 -6.61807 8.74699
1 3.76859 -5.82036 8.8167
1 4.15014 -4.96932 8.60296
1 3.36236 -4.74092 8.89699
1 3.10991 10.6585 4.8576
1 3.29311 -10.0889 4.10306
1 2.86682 10.3722 3.63966
1 2.00616 10.5353 4.13353
1 1.1843 10.1539 4.46153
1 0.191682 10.202 4.45773
1 0.334389 9.36903 4.98612
1 0.321401 8.45542 4.76025
1 0.603855 8.92161 3.87889
1 1.38769 9.47997 3.77418
1 6.98616 8.81797 -5.13517
1 6.82674 9.26085 -4.3408
1 6.55709 10.1647 -4.47805
1 7.09953 -10.4816 -4.07634
1 7.20748 -10.2189 -3.17819
1 7.05285 10.5621 -2.44579
1 7.57163 10.3036 -1.73095
1 6.94501 10.1965 -0.982148
1 7.65745 9.56811 -0.843625
1 8.28998 9.41238 -0.127718
1 3.92017 7.65204 -5.78459
1 3.17117 7.83583 -5.18547
1 3.27377 8.64285 -5.71731
1 3.40802 8.21346 -6.60879
1 3.45418 7.27653 -6.85951
1 3.57457 6.71615 -6.11387
1 2.59369 6.75583 -6.27105
1 2.2185 6.06024 -5.76617
1 2.19001 5.50835 -6.57572
1 2.07127 4.58089 -6.71656
1 -7.14876 -5.2031 10.2812
1 -7.43563 -4.90338 -10.1357
1 -7.97164 -5.21245 -9.47928
1 -8.90888 -5.45381 -9.27946
1 -9.74452 -5.00663 -9.56122
1 -9.60019 -5.12356 -10.533
1 -9.47574 -4.70049 9.97228
1 -9.45954 -5.498 9.41926
1 -9.03789 -4.8112 8.90989
1 -9.937 -4.40372 8.88763
1 4.8765 9.80777 -2.57961
1 5.47673 9.70483 -1.85626
1 5.67292 9.90589 -0.895826
1 6.11186 10.565 -1.48369
1 6.07319 -10.4982 -0.599422
1 6.76511 -9.859 -0.395167
1 6.5007 -8.95948 -0.19973
1 6.26805 -8.95652 0.707658
1 5.52728 -9.37503 0.231942
1 5.23121 -8.68481 -0.461584
1 -6.51961 -4.20813 -6.19614
1 -6.24031 -4.98357 -5.71553
1 -5.45115 -5.07003 -5.18357
1 -4.81034 -4.68034 -5.71453
1 -4.4398 -4.36597 -4.93806
1 -4.40318 -3.35656 -5.08957
1 -5.20663 -3.7492 -5.45531
1 -5.49929 -4.13259 -4.62341
1 -6.36722 -4.16754 -5.03836
1 -6.22102 -3.43401 -4.38925
1 2.40429 -3.79504 1.20948
1 1.86476 -3.25259 1.75658
1 1.69892 -3.37607 2.68991
1 1.04815 -3.93176 3.08646
1 1.97039 -3.94731 3.40515
1 2.19848 -3.39427 4.15006
1 1.2778 -3.27715 3.84889
1 1.40065 -2.52417 4.46486
1 0.972622 -3.17928 4.99499
1 0.364158 -2.98135 4.31571
1 -5.48141 -10.3587 -4.48952
1 -6.03399 10.4049 -4.99327
1 -6.13631 9.95855 -5.88249
1 -7.08515 9.77916 -5.76838
1 -7.1942 9.00672 -5.20809
1 -7.09545 8.46619 -4.38386
1 -6.30713 8.12361 -4.75302
1 -5.98492 7.65983 -5.47763
1 -5.42747 7.03309 -5.08885
1 -5.00924 6.97784 -5.93845
1 2.534 -8.07455 -0.709808
1 2.71312 -7.32996 -1.28248
1 2.35992 -7.44452 -2.22399
1 2.81622 -8.13218 -2.70939
1 3.29634 -8.60698 -2.12256
1 3.553 -7.73513 -1.76713
1 4.5283 -7.71214 -1.90759
1 5.16794 -7.87226 -1.22148
1 6.01612 -8.33871 -1.08925
1 6.91263 -7.94425 -0.851043
1 -5.97173 -4.90254 -2.52231