8000
Atoms. Timestep: 4500000
1 3.86083 8.02003 -3.21427
1 4.44285 7.32211 -3.67392
1 5.3326 7.25537 -3.4528
1 6.06923 7.76112 -3.79235
1 6.72907 8.38172 -4.24515
1 7.30308 8.36951 -3.48417
1 7.5027 9.0644 -2.82248
1 8.18881 9.67642 -3.06034
1 7.91178 10.6119 -3.10724
1 7.14554 -10.365 -2.76116
1 3.74863 8.62481 -0.221867
1 4.18494 9.24226 -0.875553
1 4.81345 9.94716 -0.851926
1 5.03742 9.19928 -0.29187
1 5.55467 8.35486 -0.124121
1 5.46263 7.46996 -0.433217
1 4.82003 6.81505 -0.0666752
1 4.76436 5.93324 -0.509759
1 5.76997 5.88579 -0.478049
1 6.02612 4.96184 -0.123994
1 3.61209 -8.51885 -10.6687
1 3.21988 -9.28715 -10.2937
1 2.88385 -9.39327 -9.44845
1 3.45449 -10.1537 -9.34657
1 3.40545 -10.5913 -8.46913
1 2.68563 -10.576 -7.86569
1 1.75025 -10.3005 -7.64207
1 1.49618 10.2617 -7.30156
1 2.04158 9.79148 -6.6301
1 1.92962 9.09578 -5.97706
1 2.30071 5.76814 10.5051
1 1.54967 5.2201 10.1976
1 0.969262 5.49949 9.47842
1 0.447969 5.51644 10.2857
1 -0.266906 6.25442 10.179
1 -0.80861 6.50962 9.50128
1 -0.736397 7.34457 9.03135
1 -0.776625 7.3633 10.0633
1 -0.919577 8.06044 10.6576
1 -1.35588 8.82211 -10.3792
1 0.0104305 2.96376 -8.01058
1 0.736828 2.95847 -8.73199
1 0.176731 2.1973 -8.75578
1 0.815004 2.13938 -8.06381
1 1.8179 2.12852 -8.23206
1 2.48654 1.72309 -8.76574
1 2.87416 1.1256 -8.15336
1 2.44891 0.285131 -7.87261
1 3.27851 -0.17586 -7.57027
1 3.80104 -0.4959 -8.25384
1 2.18917 5.96491 -3.96863
1 2.83297 5.65739 -3.31483
1 2.69893 4.94545 -2.62713
1 2.41364 3.96622 -2.66162
1 2.57419 3.14975 -3.04624
1 1.78778 3.47948 -3.51926
1 0.85576 3.63071 -3.38822
1 0.14598 3.66221 -2.77523
1 -0.533409 4.34951 -2.59903
1 0.0954446 4.03818 -1.85546
1 -5.61693 -5.43083 -3.77152
1 -4.81139 -5.13894 -3.35922
1 -4.58282 -4.44122 -3.95339
1 -4.66115 -5.249 -4.39521
1 -4.39743 -5.74914 -5.21993
1 -3.60621 -5.26855 -4.82196
1 -3.15388 -4.5404 -5.15806
1 -3.28846 -4.23969 -4.25328
1 -4.11291 -3.98122 -4.65472
1 -4.18617 -4.57994 -5.39038
1 4.61692 -8.39929 -3.39338
1 3.7238 -8.05462 -3.50547
1 4.15874 -7.52884 -2.81698
1 3.46985 -7.50106 -2.13819
1 3.05 -8.35878 -2.37878
1 3.98369 -8.61521 -2.64194
1 3.45731 -9.14399 -3.21646
1 2.55362 -9.33061 -2.68712
1 2.0922 -8.71609 -2.12248
1 2.16615 -7.75244 -2.36595
1 -3.8713 4.16863 4.41675
1 -2.90723 4.25022 4.42844
1 -2.35021 4.91748 4.71741
1 -1.81764 4.47686 4.14272
1 -1.13827 4.163 3.42577
1 -0.458024 4.8102 3.37367
1 0.00605083 4.01922 2.93906
1 -0.454038 3.55142 3.69523
1 -0.473844 3.44872 4.7834
1 -0.68356 4.37501 4.58687
1 -8.16337 -9.63874 7.92811
1 -7.78855 -10.2266 8.51888
1 -7.34577 -10.3929 7.68682
1 -8.12523 10.5594 7.60428
1 -8.46172 10.6677 6.68146
1 -8.66575 9.86374 6.13926
1 -8.39669 9.97177 5.24266
1 -9.31694 9.98106 5.074
1 -9.82867 10.3016 4.37609
1 -10.2031 -10.2662 4.3692
1 10.1579 1.60675 2.55289
1 9.56588 1.17957 1.99592
1 9.40509 1.02004 1.03946
1 9.66182 0.365842 0.424405
1 8.75793 0.577919 0.230365
1 8.29143 -0.0344714 -0.403636
1 8.93938 0.629603 -0.715177
1 8.76137 -0.114387 -1.31034
1 9.29476 0.490339 -1.81616
1 9.72093 -0.289648 -1.2578
1 9.55229 5.49445 -1.2757
1 9.31154 4.56267 -1.13631
1 9.24238 3.83692 -0.501878
1 10.1703 3.48781 -0.759134
1 -10.5577 3.07921 -1.27589
1 -10.1737 3.86556 -1.77942
1 -10.323 3.41097 -2.59212
1 -10.6005 2.68305 -3.1257
1 -10.0066 2.47012 -2.33854
1 -9.68377 2.42026 -1.41987
1 -8.89413 10.2661 -8.29091
1 -9.48531 9.96148 -7.59139
1 -10.2678 10.2769 -8.1244
1 -10.4159 10.4702 -7.19888
1 -9.74105 -10.4075 -7.53598
1 -10.5752 -10.1416 -7.82233
1 10.0423 -9.87976 -7.41387
1 9.96849 -9.95507 -8.40763
1 10.085 10.6124 -7.99031
1 10.567 10.6226 -8.86659
1 -3.33815 -7.08594 4.70991
1 -2.92723 -6.69542 5.4363
1 -2.52052 -7.57309 5.43186
1 -2.99016 -7.75459 6.20269
1 -3.83688 -7.36296 5.72014
1 -3.96074 -6.38711 5.82937
1 -4.16214 -6.39696 4.88936
1 -4.25252 -6.01424 4.00389
1 -4.71048 -6.86952 4.11133
1 -5.34317 -7.11397 3.39816
1 -9.34424 7.90824 -6.78601
1 -9.92727 7.16679 -6.68093
1 -9.21752 6.74417 -6.30727
1 -9.62504 6.81226 -5.42831
1 -9.66303 6.6653 -4.40064
1 -9.77313 7.31581 -3.74101
1 -9.11716 6.99081 -3.09103
1 -8.26333 7.46632 -3.24422
1 -8.15159 8.42491 -3.14282
1 -8.70479 8.67814 -2.28637
1 1.1062 -4.36051 10.4633
1 2.01424 -4.49507 -10.5543
1 2.87939 -4.06404 -10.4965
1 2.97572 -4.44581 10.0986
1 3.88581 -4.335 9.96902
1 4.53842 -4.75803 9.4092
1 4.97502 -5.59031 9.56589
1 4.88266 -5.20257 10.4359
1 4.31211 -4.85141 -10.2527
1 4.05479 -3.97523 -9.99205
1 -4.39206 -9.76511 -8.99726
1 -5.00576 -10.0903 -9.57777
1 -5.90687 -10.2654 -9.88524
1 -5.86202 -10.5483 10.5993
1 -6.26784 -10.1276 9.83095
1 -6.21707 10.6665 9.16888
1 -6.4955 9.78111 9.3771
1 -6.29484 9.4078 10.2866
1 -6.33243 9.05816 -10.256
1 -6.56515 8.29529 10.6959
1 -9.34237 -10.5072 10.6512
1 -10.0478 -10.0733 -10.331
1 -9.31245 -9.45609 -10.5672
1 -9.49685 -8.5154 10.6267
1 -9.4381 -7.58396 10.5115
1 -9.94414 -6.74001 10.3519
1 -9.2587 -6.42315 -10.504
1 -9.70793 -5.54588 -10.5564
1 -9.39666 -5.84956 9.95541
1 -10.1811 -5.27333 9.77981
1 6.95307 -1.1566 -3.31196
1 7.02441 -2.0982 -3.52995
1 7.83942 -2.02943 -3.05936
1 7.99344 -1.22504 -2.46076
1 7.96029 -0.387449 -2.94267
1 8.63559 -0.201051 -2.27176
1 9.54692 -0.371105 -2.52118
1 10.1822 0.308003 -2.55685
1 10.2528 -0.278908 -3.29199
1 9.33918 0.016768 -3.53571
1 8.97572 9.72125 2.21217
1 8.58578 8.87132 2.35692
1 7.91367 8.94092 3.02905
1 8.06053 9.86468 2.88963
1 8.8765 9.52583 3.25854
1 8.15754 9.5195 3.87869
1 7.77152 10.0825 4.55128
1 7.42458 9.28897 4.95721
1 7.65683 8.60242 4.34208
1 7.42206 7.84863 4.8135
1 -0.947278 -9.97511 -5.06128
1 -0.536489 -10.5004 -4.374
1 0.169965 -10.187 -4.91214
1 1.09038 -10.1245 -4.95897
1 1.50466 -9.22706 -4.95537
1 1.22511 -9.0391 -5.87962
1 0.811161 -9.92426 -5.90932
1 0.352216 -9.27841 -5.22007
1 -0.262982 -8.96314 -4.49536
1 -1.08185 -8.92011 -5.03815
1 6.32641 10.06 3.71709
1 6.92005 9.35436 4.00185
1 6.34626 8.64917 3.7192
1 6.69357 7.74249 3.7417
1 6.42462 8.07257 2.88486
1 7.40293 8.01444 2.97681
1 7.06954 7.28978 2.36732
1 7.18771 6.53018 2.9742
1 6.97665 5.878 2.27589
1 7.66542 6.43572 2.10294
1 5.03681 -1.21083 -10.0518
1 5.41391 -0.452588 -9.65798
1 6.17992 -1.07386 -9.74747
1 6.98044 -0.785582 -9.37077
1 6.48545 -0.552112 -8.58567
1 7.26815 -0.524366 -8.12931
1 8.16412 -0.0948139 -8.2925
1 8.71292 0.738175 -8.13573
1 7.75355 0.635826 -7.74412
1 7.443 1.55219 -7.79269
1 0.220979 -3.88867 1.97097
1 -0.755632 -3.8734 2.03474
1 -1.51851 -3.66991 2.63461
1 -1.9821 -3.91675 1.81632
1 -1.43497 -4.66322 2.21947
1 -1.57181 -5.64523 2.36665
1 -2.4126 -5.31698 2.02851
1 -2.2115 -6.07724 1.47401
1 -2.64149 -6.37177 2.32168
1 -3.26065 -7.03892 2.54093
1 9.2572 -10.6912 8.42786
1 8.75816 10.0147 7.99202
1 9.65877 9.79608 7.8347
1 10.3905 9.9544 7.15903
1 -10.6376 10.5612 6.5702
1 9.87999 10.3792 6.38932
1 9.71326 10.6516 7.3285
1 9.91277 -9.97166 7.69602
1 -10.665 -10.3156 7.50841
1 -10.18 -9.68496 7.02096
1 1.5086 -0.393652 1.30261
1 1.23652 -0.20962 0.376783
1 1.93808 -0.630743 -0.106722
1 1.49017 -0.118873 -0.758096
1 0.841966 -0.700058 -0.402633
1 0.438478 -0.448703 -1.25049
1 0.737394 -1.07017 -1.9738
1 1.50389 -1.36547 -2.41696
1 0.967337 -2.167 -2.49492
1 1.28291 -2.36198 -1.64206
1 0.213644 -0.241767 5.18975
1 -0.0591596 -0.655478 4.37293
1 -0.981829 -0.698172 4.52821
1 -0.947337 0.196198 4.67731
1 -1.85598 0.417979 5.0149
1 -1.58433 1.31657 4.60237
1 -0.921169 1.75674 4.10235
1 -0.201259 1.23383 3.73598
1 0.105285 1.39421 4.60009
1 0.760986 1.62365 3.94945
1 -3.30668 5.73784 6.88718
1 -2.43344 5.42551 7.06307
1 -1.68876 5.65179 6.45149
1 -0.886561 5.44808 6.92753
1 -1.46154 4.75191 7.0015
1 -1.90318 3.9487 6.88094
1 -1.35261 3.23942 6.50901
1 -1.72849 2.91496 7.28213
1 -1.03066 2.32453 7.0193
1 -1.09603 1.93799 6.14944
1 2.19065 1.21609 1.30041
1 2.06265 0.337043 1.01274
1 2.77959 0.0241711 1.57859
1 3.09408 -0.452728 0.888336
1 3.83774 -0.608429 1.46659
1 4.85582 -0.881861 1.57917
1 4.71257 0.0560059 1.69683
1 4.42996 0.323744 0.780144
1 4.19929 -0.564231 0.535781
1 3.44012 -0.404944 -0.0727945
1 -7.02893 3.23883 4.95169
1 -7.7974 3.67241 4.57658
1 -8.60907 3.96605 4.19608
1 -8.20594 4.66302 4.74486
1 -7.27474 4.68506 5.22999
1 -6.94677 5.55646 5.35428
1 -7.63191 5.63009 4.68906
1 -7.33762 5.10871 3.94513
1 -7.72188 5.84785 3.40412
1 -7.23189 6.11983 2.64248
1 6.76673 -0.505248 -6.47505
1 7.17606 -0.0484969 -7.14394
1 7.58431 0.172967 -6.36355
1 7.05332 0.915577 -5.98285
1 7.20391 1.76936 -5.55571
1 7.94112 1.24765 -5.63556
1 8.36009 1.51168 -4.81447
1 7.78953 1.07797 -4.16796
1 7.60079 0.238902 -3.77516
1 6.70783 0.615445 -3.68539
1 -1.95327 -9.95952 0.979197
1 -2.21338 -9.08957 1.33698
1 -2.28681 -8.24505 0.923568
1 -2.2303 -7.87521 0.015492
1 -1.51327 -7.53579 0.539242
1 -1.23646 -7.40417 1.48885
1 -2.11675 -7.4622 1.8862
1 -2.02606 -7.57724 2.81308
1 -1.8448 -8.39286 3.26118
1 -2.47409 -7.91288 3.89054
1 -9.16797 -6.8289 -7.9098
1 -10.0434 -7.25205 -8.00273
1 -9.43815 -7.56771 -8.67702
1 -10.071 -6.9356 -9.05219
1 -9.9202 -6.17142 -9.62957
1 -9.10901 -6.68992 -9.5367
1 -9.01027 -7.63211 -9.61574
1 -9.85958 -7.34508 -9.96205
1 10.6044 -7.4068 -10.2247
1 10.7005 -6.46364 -10.3341
1 5.65455 -3.11137 -0.668365
1 5.0531 -3.80381 -0.561319
1 4.18115 -3.52964 -0.895211
1 4.45313 -2.7043 -1.29349
1 5.31345 -2.95142 -1.65251
1 6.20804 -2.72061 -1.8804
1 6.91148 -3.46663 -1.74092
1 7.20355 -3.07832 -2.543
1 7.41031 -3.98895 -2.5381
1 8.03006 -3.45642 -1.95324
1 -9.4825 5.89613 4.34189
1 -10.1281 5.31563 4.86228
1 -9.70757 4.55315 4.37015
1 -9.28825 4.09676 5.0915
1 -10.2216 3.88759 5.34019
1 -10.3031 3.60686 4.40015
1 -10.5749 2.8754 4.96303
1 10.2455 2.14861 5.30012
1 9.75862 1.71162 6.02482
1 8.90047 1.4307 5.87638
1 9.67618 2.07547 4.3758
1 10.5561 2.26648 4.04543
1 -9.91509 2.37894 3.99385
1 -9.38183 3.09956 3.71263
1 -8.51034 2.6886 3.87731
1 -8.7489 1.79466 3.83666
1 -8.36653 0.958467 3.73129
1 -8.39335 0.352651 4.4558
1 -7.74111 0.868666 5.00124
1 -8.62783 0.900105 5.5252
1 -3.36906 -8.12562 2.99868
1 -3.45485 -7.39647 3.59513
1 -2.58196 -6.93461 3.78111
1 -2.18583 -6.84674 4.63614
1 -1.56784 -6.14628 4.53876
1 -1.59127 -6.5474 3.70396
1 -1.08976 -7.21773 3.15912
1 -0.177811 -7.37012 3.37142
1 0.488895 -7.83981 3.84863
1 0.946398 -8.69237 4.13271
1 -5.40346 -3.66347 6.21509
1 -5.32815 -4.51686 5.90954
1 -5.52156 -4.09789 5.06823
1 -4.80269 -3.46978 4.78043
1 -4.27637 -2.76158 4.3939
1 -3.29357 -2.42654 4.26591
1 -3.84489 -2.46688 3.49851
1 -4.73 -2.14217 3.46982
1 -5.40945 -2.29438 2.83263
1 -6.32447 -2.3273 3.07896
1 -8.09149 2.57139 -8.99636
1 -8.18757 3.52716 -8.83064
1 -8.93867 3.942 -8.37295
1 -9.09575 3.14104 -7.89016
1 -9.08387 2.22554 -7.49794
1 -9.97586 2.40461 -7.80924
1 -10.346 2.25081 -8.65339
1 -10.463 1.39642 -9.00768
1 -9.595 1.54594 -8.6839
1 -9.29553 2.32971 -9.24315
1 -3.76542 -3.67212 -1.41828
1 -4.28579 -4.43348 -1.76864
1 -5.18267 -4.35037 -2.25217
1 -5.63611 -4.92478 -2.80179
1 -6.42025 -5.10542 -2.34189
1 -6.57899 -5.87305 -2.93009
1 -5.62855 -6.0529 -2.80398
1 -6.19845 -6.5681 -2.27441
1 -6.17173 -7.41531 -1.79579
1 -5.25602 -7.3176 -1.83745
1 10.2027 9.14664 5.33184
1 10.6066 9.63275 6.07899
1 -9.97204 9.92101 5.99366
1 -9.47909 -10.6811 6.12499
1 -9.93791 -9.9142 5.89854
1 -10.2815 10.7226 5.41482
1 10.3243 10.4236 5.17193
1 9.40352 -10.575 5.3661
1 8.8345 10.3302 4.89342
1 8.48622 -10.3044 4.48794
1 -10.6988 0.246905 -9.20591
1 -10.208 -0.573616 -9.53072
1 -10.1784 -1.3453 -8.91929
1 -9.2641 -1.19955 -9.11163
1 -9.11342 -1.47311 -8.20907
1 -8.20846 -1.60034 -8.30039
1 -7.47565 -1.93911 -8.98413
1 -6.96718 -1.6774 -9.72513
1 -6.73537 -0.787631 -9.47248
1 -7.69959 -0.923964 -9.61018
1 3.62703 3.4628 7.58926
1 4.00112 2.60117 7.66908
1 4.83768 2.8088 8.15115
1 4.74199 1.97277 8.54054
1 3.8636 1.60164 8.49651
1 4.47225 1.4242 9.26695
1 5.19779 1.0187 8.63236
1 5.28111 0.112608 8.68829
1 4.77852 0.336 9.54389
1 4.09403 -0.278372 9.81217
1 -10.2471 1.73112 5.15207
1 -10.4499 2.17113 5.9887
1 -10.5063 2.62556 6.84764
1 -10.2534 3.40936 6.27885
1 10.2049 3.6763 6.37038
1 9.8079 3.69715 5.51276
1 9.52295 3.79191 4.63953
1 9.24375 4.58253 5.22836
1 8.29768 4.59114 5.36437
1 7.86759 4.30846 6.14893
1 10.5785 -5.61784 8.8558
1 -10.4757 -5.5458 7.98975
1 -10.2379 -4.60715 8.0273
1 -9.93595 -3.76778 8.33237
1 -9.2167 -4.25981 7.93533
1 -9.07463 -3.31705 8.19107
1 -8.38112 -2.87224 7.7846
1 -7.55444 -3.1504 8.22856
1 -7.01156 -3.48485 7.5281
1 -6.88957 -2.4897 7.45054
1 -10.4015 -3.18657 -8.39218
1 -9.53695 -3.60041 -8.42705
1 -9.19964 -2.76321 -8.07807
1 -8.37323 -2.57669 -8.56077
1 -8.63703 -2.11987 -9.32302
1 -8.11978 -1.73112 -10.1149
1 -7.68936 -2.51545 -9.92575
1 -8.07946 -2.37666 10.5232
1 -8.53386 -3.17528 -10.5105
1 -8.2428 -3.25823 -9.61022
1 -8.90316 -9.10149 -3.74193
1 -9.68017 -8.75171 -3.29764
1 -9.98351 -9.70615 -3.26516
1 -10.691 -9.1417 -3.3487
1 -10.6391 -8.22846 -3.00569
1 9.92293 -8.2983 -2.53678
1 10.325 -7.4426 -2.66678
1 10.7183 -6.97721 -3.38172
1 -10.505 -6.39205 -2.62169
1 10.1715 -6.50767 -2.0561
1 2.99736 -5.41663 -5.99715
1 2.08961 -5.17131 -5.76875
1 1.47694 -5.83911 -6.07178
1 1.45626 -6.82477 -6.23889
1 0.504501 -6.60493 -6.27305
1 -0.229432 -7.11589 -6.71524
1 -0.28123 -8.04455 -6.58595
1 -0.796182 -8.11865 -7.43852
1 -0.919545 -9.03424 -7.02586
1 -0.39614 -8.84337 -6.19918
1 4.64613 -4.99424 -1.15601
1 4.93434 -4.15585 -1.5458
1 5.4216 -4.7722 -2.04292
1 4.62783 -4.53674 -2.55147
1 4.0545 -5.06211 -1.9995
1 3.99874 -6.01535 -1.84255
1 3.77792 -6.62211 -2.58085
1 3.64486 -6.76567 -3.49006
1 3.81262 -6.77322 -4.47584
1 3.09122 -7.27815 -5.02014
1 -9.088 -5.94096 -8.72474
1 -8.81044 -5.63208 -9.58689
1 -8.74756 -5.10231 -10.453
1 -8.27584 -4.23954 10.7021
1 -8.05492 -4.84547 9.93293
1 -9.04063 -4.71801 9.95599
1 -9.49528 -4.98321 9.18029
1 -8.64315 -5.35655 9.11433
1 -8.2069 -5.04083 8.29851
1 -8.1419 -4.10814 8.42799
1 4.09428 6.46606 -6.98411
1 3.23825 6.27554 -7.39932
1 3.47492 5.55677 -7.95848
1 3.24713 4.82129 -7.36125
1 3.63617 3.84818 -7.34866
1 4.39097 4.49625 -7.46243
1 4.57062 3.56714 -7.6753
1 4.81976 3.86701 -8.54428
1 3.86513 3.61767 -8.58349
1 4.13474 4.28868 -9.33912
1 -6.26108 3.37654 6.09837
1 -5.39785 3.11724 5.76804
1 -4.84492 3.46123 5.04047
1 -5.14782 2.61002 4.7812
1 -4.18472 2.47938 4.80407
1 -4.23302 2.46689 3.8576
1 -4.25288 2.85534 2.98691
1 -4.40996 2.85052 2.05563
1 -4.35575 2.26443 1.2451
1 -4.7933 1.87617 0.559045
1 8.15172 4.12751 -8.08042
1 8.43004 3.82894 -9.04747
1 7.55959 3.35181 -9.03163
1 7.69901 2.70784 -9.70698
1 8.23864 3.41958 -10.171
1 7.95619 3.37698 10.4039
1 7.67286 3.40268 9.47291
1 7.27446 2.62666 9.88541
1 7.05887 3.28731 10.5384
1 6.17454 3.668 -10.6234
1 6.39268 4.53037 -0.960125
1 5.43506 4.6823 -0.91012
1 5.00883 4.87873 -0.0706019
1 5.20648 5.66977 0.44683
1 5.785 5.29151 1.14108
1 6.5994 5.82732 1.35881
1 6.42464 6.70951 1.62432
1 7.18991 6.6781 0.930014
1 7.68078 7.42474 1.4253
1 8.30919 7.3169 0.780124
1 -2.40828 -1.81922 -5.22322
1 -2.76394 -0.968504 -5.29653
1 -1.85767 -1.04398 -5.75419
1 -1.57074 -0.488898 -6.4838
1 -0.97163 -1.18636 -6.58476
1 -1.79521 -1.63703 -6.57037
1 -2.50898 -2.23798 -6.99526
1 -2.09574 -1.86312 -7.90113
1 -3.03182 -1.7952 -7.81578
1 -3.59824 -1.42168 -8.50544
1 9.50928 8.94385 -1.06283
1 9.66844 8.93441 -0.136579
1 10.3661 9.46519 0.207122
1 10.7191 10.0552 -0.453705
1 10.4204 -10.7135 -1.0721
1 10.5559 -9.83441 -1.30182
1 -10.5613 -9.73059 -0.360462
1 -9.62227 -9.67174 -0.229799
1 -8.80542 -9.20611 -0.514968
1 -9.03124 -9.12438 -1.41171
1 -10.0154 8.89682 -6.76646
1 -9.41002 8.83848 -7.55455
1 -8.50764 8.53731 -7.12126
1 -8.47991 9.46151 -7.64705
1 -8.97822 9.19931 -8.45309
1 -9.88188 9.45172 -8.86224
1 -10.6977 9.46575 -9.29868
1 10.6693 8.49562 -9.06745
1 10.0634 8.70622 -8.31963
1 10.208 9.68345 -8.43776
1 -1.41786 10.0455 -5.0028
1 -1.43789 9.15068 -4.6765
1 -2.00571 9.21401 -3.93418
1 -1.47317 10.0058 -3.70024
1 -1.09242 9.16994 -3.46711
1 -0.170202 9.42184 -3.75178
1 -0.316763 8.61077 -4.24871
1 -0.898716 7.81265 -4.38843
1 -0.785874 7.97272 -3.46135
1 -0.597266 7.7827 -2.53518
1 3.19692 9.42665 -9.70092
1 2.28644 9.17925 -9.63137
1 2.54419 9.91657 -9.04159
1 3.25243 9.70324 -8.44936
1 2.99754 8.82519 -8.76939
1 2.39503 8.0061 -8.57844
1 1.65645 7.88459 -7.94568
1 1.17971 8.73667 -8.13358
1 1.35183 8.75525 -7.17974
1 1.56134 7.8193 -6.87027
1 6.71895 0.851937 0.593814
1 7.32715 0.639997 -0.0902133
1 7.70571 0.861405 0.734005
1 7.84212 1.51492 0.0579798
1 7.33182 1.96854 0.697009
1 6.48691 1.62375 1.19414
1 5.55226 1.57389 0.994089
1 5.49193 0.760683 1.63704
1 5.52383 0.217572 0.905731
1 5.25715 -0.666315 0.653563
1 -3.19744 5.07509 -5.08136
1 -3.02683 4.27442 -5.70331
1 -2.28614 3.64636 -5.65916
1 -1.40324 3.47607 -5.61315
1 -1.27842 3.68321 -4.74312
1 -1.70166 2.74782 -4.87839
1 -2.57021 3.12745 -4.76927
1 -2.89813 4.02407 -4.70805
1 -3.73294 3.54629 -4.51685
1 -4.40952 4.25607 -4.38383
1 -2.14826 -8.21467 -7.20304
1 -2.05059 -9.19378 -7.29867
1 -1.42712 -9.93545 -7.16518
1 -0.6586 -10.5428 -7.15439
1 -0.426653 -9.74485 -7.6979
1 -0.271405 -10.5794 -8.21253
1 0.527628 10.6289 -7.80647
1 0.616914 9.74168 -8.14569
1 1.34878 9.97373 -8.64892
1 1.32629 10.1825 -9.66338
1 9.26235 4.66307 -5.30532
1 9.27886 5.59104 -5.03547
1 9.23596 6.38516 -4.5252
1 8.26025 6.24474 -4.38256
1 8.23765 5.58166 -3.6841
1 9.09102 5.4902 -3.3271
1 9.96183 5.17958 -3.09262
1 9.95572 5.95135 -3.76685
1 -10.6109 6.32619 -4.01456
1 10.7195 7.14552 -4.50258
1 9.76634 1.24844 -7.5733
1 10.178 0.71565 -8.20921
1 10.0099 0.901207 -9.20931
1 9.37136 1.01325 -9.93762
1 9.22463 0.0803663 -9.66874
1 9.23118 0.0480674 -8.66795
1 9.88041 -0.592664 -9.1964
1 10.2153 -0.311756 -10.064
1 9.59401 -0.0129785 -10.7181
1 9.85777 0.899281 10.6535
1 9.45369 1.83604 9.98425
1 8.7907 2.35382 9.59462
1 8.34204 2.40847 10.3961
1 7.71917 1.70726 10.33
1 7.16966 2.09258 -10.4548
1 6.40452 1.90268 -9.92364
1 5.9251 1.61408 10.6572
1 5.29579 1.60576 -10.0838
1 5.5804 1.18349 -9.25707
1 6.29471 0.743366 -9.81234
1 -2.14528 1.96361 -4.5205
1 -2.89602 2.21311 -5.15008
1 -2.79122 2.66605 -5.94594
1 -3.34082 3.35923 -5.47623
1 -4.11091 3.95854 -5.37687
1 -4.99745 3.67747 -5.21372
1 -4.41027 3.04852 -5.64652
1 -3.98593 3.41871 -6.41845
1 -3.75126 2.45649 -6.50811
1 -3.58305 2.25687 -7.46224
1 -1.80834 6.8093 10.3166
1 -1.16179 6.37485 -10.5161
1 -0.443968 6.96927 -10.389
1 0.131024 7.72481 -10.1269
1 0.611239 7.24563 -9.42097
1 0.498617 6.41883 -9.93927
1 1.0533 5.68635 -10.0669
1 1.53659 6.30265 -9.42182
1 2.22136 5.86252 -9.94604
1 2.11442 4.92606 -10.197
1 5.64346 0.45045 -4.52906
1 6.06048 1.34992 -4.14126
1 6.7598 1.02603 -4.76865
1 6.01703 0.947956 -5.34447
1 5.23389 1.27506 -4.8753
1 4.7698 1.88837 -4.40319
1 5.58358 2.2582 -3.98446
1 5.32833 3.23355 -4.05214
1 5.19699 3.93194 -4.70379
1 5.17164 4.25528 -3.82075
1 -3.52854 -2.62233 8.04602
1 -3.1805 -2.03883 8.66565
1 -2.9169 -1.54274 7.8559
1 -2.508 -1.1938 8.6561
1 -1.94238 -0.652223 9.21053
1 -2.11258 0.270359 9.29433
1 -2.35426 1.19263 9.4317
1 -1.96828 2.12738 9.76081
1 -2.83745 2.22186 10.2155
1 -3.40185 1.4904 10.4869
1 6.46371 -3.44557 -6.55928
1 5.62388 -3.10382 -6.84332
1 5.33585 -2.30391 -6.08555
1 4.72362 -2.75478 -6.70962
1 4.73249 -3.66703 -6.89316
1 4.97443 -3.09577 -7.68724
1 4.9099 -2.94411 -8.61558
1 5.69989 -2.54401 -8.22888
1 5.3126 -1.67156 -7.90789
1 5.77754 -2.0761 -7.1084
1 -10.4256 -1.52008 1.15731
1 -10.1987 -1.84899 0.315744
1 -9.39408 -1.7495 0.818253
1 -8.46356 -1.60842 0.582046
1 -8.15046 -1.54902 -0.3779
1 -7.44307 -2.0197 0.0527483
1 -7.44798 -1.43434 0.788029
1 -7.41986 -0.784139 0.179855
1 -8.1309 -0.651561 0.788503
1 -8.52572 -1.2048 1.51464
1 -3.5407 -10.6629 8.93807
1 -3.1901 9.76401 8.79402
1 -3.07163 9.89475 9.70166
1 -3.3222 -10.6106 9.8763
1 -4.20876 -10.2057 9.60693
1 -3.5492 -9.50508 9.43578
1 -2.61793 -9.34377 9.90254
1 -2.52221 -10.2066 9.38621
1 -2.12161 -9.77887 8.5769
1 -3.09369 -9.66812 8.55453
1 -4.03464 -4.35677 -2.76616
1 -4.59121 -3.59473 -2.61451
1 -5.26639 -2.89608 -2.50432
1 -5.88391 -3.20196 -3.09512
1 -6.69715 -3.14291 -2.63661
1 -6.27537 -3.94639 -2.41315
1 -6.80487 -4.10281 -1.59218
1 -7.29994 -4.4448 -0.906385
1 -7.28311 -5.42811 -1.2311
1 -6.68782 -6.02141 -1.6161
1 -6.30316 4.07392 7.90107
1 -6.79279 4.87803 8.01526
1 -6.33519 4.81757 8.87348
1 -7.15262 4.36245 9.085
1 -6.60272 4.28835 9.83217
1 -7.17993 3.61304 9.96224
1 -6.4919 3.47405 10.589
1 -5.53821 3.44179 -10.5048
1 -4.59135 3.59439 -10.4535
1 -4.15018 3.42977 10.2068
1 0.0148528 -8.51653 4.60435
1 -0.13923 -7.58455 4.61127
1 -0.976061 -7.40921 4.25972
1 -0.709377 -8.16225 3.73094
1 0.058688 -8.58513 3.24535
1 0.372956 -9.2789 2.59845
1 0.975928 -8.59897 2.8418
1 1.68909 -9.10782 2.33067
1 2.21283 -9.36298 3.10341
1 2.9313 -8.85279 2.72515
1 2.87268 -9.18538 -6.54185
1 2.16286 -8.58594 -6.50563
1 1.822 -9.05483 -7.2933
1 0.989793 -9.5257 -7.4402
1 1.30185 -9.04454 -8.23595
1 2.23176 -8.70437 -8.38309
1 1.94034 -7.82785 -8.09913
1 1.67308 -6.86333 -7.90225
1 2.30009 -6.24161 -7.44884
1 2.7149 -6.65234 -8.30279
1 -5.68771 -2.13815 -3.28925
1 -4.81844 -1.84686 -2.8432
1 -4.62544 -2.0611 -1.85049
1 -4.37575 -1.64652 -0.978271
1 -4.39691 -2.26337 -0.25284
1 -3.82115 -1.81693 0.468887
1 -3.91875 -2.22161 1.35723
1 -4.65492 -2.92868 1.57052
1 -4.18048 -3.64912 1.9479
1 -5.06147 -3.91738 2.1104
1 7.49511 -2.28043 -0.739657
1 8.02002 -2.48962 -1.51536
1 8.71571 -1.92695 -1.8387
1 8.96672 -0.990176 -1.8665
1 8.38088 -1.08048 -1.13347
1 7.82895 -0.450334 -1.70593
1 6.9481 -0.818778 -1.86964
1 7.4705 -1.42333 -1.35429
1 7.40871 -1.27579 -0.368584
1 7.38084 -0.405855 -0.713119
1 1.81999 -6.69925 3.39151
1 2.22197 -5.96913 3.93613
1 1.66884 -5.73371 4.63652
1 1.17804 -4.86296 4.5516
1 0.619832 -4.3751 3.93003
1 0.577451 -4.10966 2.96102
1 1.07394 -3.47867 3.43429
1 1.71404 -3.14755 2.78676
1 2.08982 -3.0346 1.92209
1 2.9396 -2.65531 1.54817
1 10.4722 7.30215 7.16142
1 -10.1283 7.50151 7.47207
1 -9.18276 7.34709 7.67236
1 -8.58487 6.66966 7.34918
1 -8.47327 6.76167 6.37887
1 -8.12776 6.55752 5.53925
1 -7.32674 6.70656 4.9624
1 -7.92586 7.50613 4.94597
1 -7.00623 7.60864 4.47684
1 -6.43511 7.45641 5.19466
1 8.08438 8.09281 7.20269
1 8.33951 7.26985 7.7323
1 7.53889 6.73254 7.78876
1 7.06454 6.56225 6.98637
1 6.87137 5.66275 6.71712
1 6.79909 4.72248 6.41303
1 7.21364 3.9635 6.79121
1 8.13579 4.14554 7.17009
1 8.07107 3.31559 6.65067
1 8.96412 3.5847 6.95932
1 -6.59346 1.4979 -8.77314
1 -5.91938 0.837625 -8.48391
1 -4.9216 0.930887 -8.31183
1 -5.49937 0.986139 -7.51968
1 -6.23101 0.328506 -7.5645
1 -6.41611 -0.178538 -6.77176
1 -5.74194 -0.48263 -6.14199
1 -5.46049 -1.37367 -6.28283
1 -5.03664 -2.11781 -5.89312
1 -6.01228 -2.25752 -5.97526
1 9.02682 7.08331 9.40144
1 9.41236 6.21842 9.29982
1 9.22054 5.30138 9.67497
1 8.90584 5.78538 10.5579
1 8.36472 6.02401 9.80843
1 7.51988 6.22232 10.0411
1 6.95341 6.03794 9.29361
1 7.36863 5.16941 9.30469
1 6.53261 4.80085 9.07351
1 6.15761 5.58965 8.63035
1 2.51438 2.69646 2.20144
1 2.40354 3.4646 2.78031
1 3.15037 2.90247 3.21436
1 2.83259 3.55016 3.83445
1 2.33881 3.0765 4.49672
1 1.59443 2.3319 4.16813
1 0.9076 2.67153 4.77196
1 1.46258 2.60211 5.62278
1 1.37547 3.49977 5.81708
1 2.25316 3.49965 6.13938
1 -7.57636 10.0227 -7.32517
1 -6.60183 10.2863 -7.51419
1 -5.96321 10.6189 -6.92129
1 -5.56321 9.72193 -7.12577
1 -6.19592 8.98718 -7.01597
1 -6.75864 8.99223 -6.15746
1 -7.65486 8.88741 -5.93388
1 -8.41938 9.42472 -5.70642
1 -7.95644 9.78385 -6.42738
1 -8.48201 10.2743 -7.01568
1 -3.4751 4.80842 0.102815
1 -2.60907 5.06405 0.37549
1 -3.07543 5.61095 0.936953
1 -3.08873 5.0475 1.73457
1 -3.45369 4.38849 1.11368
1 -3.62657 3.56855 1.59953
1 -2.72743 3.91508 1.73544
1 -2.53923 3.93161 0.765496
1 -1.88572 4.5729 0.902895
1 -1.92356 5.31178 1.46597
1 -8.55518 9.17588 0.208009
1 -8.18481 9.47657 0.993225
1 -7.72122 9.5025 1.76709
1 -7.5922 8.68937 1.34792
1 -8.51038 8.55288 1.00497
1 -8.19078 7.78685 1.47733
1 -7.33257 7.76473 0.892947
1 -8.15274 7.64369 0.346945
1 -8.99401 8.0304 0.386261
1 -9.85798 8.12179 0.746348
1 8.81032 -3.58653 6.01053
1 8.70612 -2.84367 6.71835
1 8.86684 -3.55298 7.32775
1 7.93183 -3.76594 7.38367
1 8.55874 -4.30371 7.94751
1 9.39771 -4.45886 7.50674
1 10.3319 -4.46501 7.31992
1 10.2722 -4.89252 6.51707
1 -10.4893 -5.17451 7.05882
1 -9.59121 -5.05716 7.16813
1 9.88923 -10.3433 -5.22653
1 10.7031 -10.6724 -5.00255
1 -10.3041 -10.4581 -4.17798
1 -9.84283 10.1344 -4.08754
1 -9.41134 10.0966 -3.31255
1 -9.40835 9.20086 -2.98097
1 -10.1304 9.49335 -2.44931
1 -9.9813 8.64051 -1.99423
1 -10.0676 7.66055 -1.84779
1 -9.16098 7.29925 -1.95479
1 9.57632 -7.91162 10.2492
1 9.87024 -7.4239 9.44293
1 10.5303 -7.18238 10.1052
1 9.70162 -6.68131 10.2176
1 9.43014 -5.82415 10.343
1 8.66064 -6.28684 10.023
1 8.82041 -6.71907 9.23662
1 8.33759 -7.30476 9.85526
1 8.15732 -7.72402 9.07194
1 7.515 -6.988 8.93346
1 4.00035 -4.0829 -1.85441
1 3.14876 -4.53157 -1.60692
1 3.09105 -3.54383 -1.68724
1 3.28016 -2.9339 -1.00264
1 3.38409 -3.34411 -0.122885
1 2.91916 -3.97269 -0.660784
1 1.96877 -3.53257 -0.767708
1 2.28883 -3.86759 0.116139
1 1.38235 -4.12039 -0.126495
1 1.9754 -4.72123 -0.648775
1 -5.37749 -4.22433 -3.42333
1 -5.79896 -3.53929 -4.01503
1 -6.50141 -2.86686 -3.95339
1 -6.62216 -2.90399 -4.90992
1 -7.02547 -2.70698 -5.86776
1 -7.18024 -1.7611 -6.03004
1 -7.09764 -0.918952 -5.50831
1 -6.67725 -1.47453 -4.83546
1 -6.60683 -1.58306 -3.87638
1 -5.83065 -1.86311 -4.38524
1 -4.04886 0.945009 -7.74654
1 -3.95393 1.70961 -8.25158
1 -3.9746 1.02987 -8.97623
1 -3.09098 0.636114 -8.88412
1 -3.01287 1.50423 -8.59332
1 -2.65812 2.21964 -9.06709
1 -2.45262 2.51633 -9.97533
1 -1.54833 2.30172 -10.2503
1 -1.42702 1.95455 -9.38798
1 -0.87074 2.50669 -8.85415
1 -0.942966 -0.202644 -9.60826
1 -1.33239 -0.474078 -10.4473
1 -1.74939 0.313783 -10.2688
1 -1.97511 0.341589 -9.35548
1 -2.80298 0.0829693 -9.79645
1 -3.80959 0.163536 -9.64789
1 -4.50431 0.180595 -8.96273
1 -5.08826 -0.194552 -9.61823
1 -5.46978 -0.996311 -9.1856
1 -4.54731 -1.00023 -8.93286
1 6.57943 1.83806 4.90938
1 6.59736 2.61071 4.36499
1 5.85712 2.78802 3.73985
1 6.5753 3.328 3.60068
1 6.67828 2.45833 3.07484
1 6.28097 1.84856 3.60965
1 7.07403 1.71357 4.06446
1 7.92343 1.59635 3.7572
1 7.85973 0.647898 3.77433
1 7.97329 0.286839 4.65431
1 -3.81099 -0.680429 -5.05566
1 -3.55482 -1.5646 -4.89722
1 -3.15019 -2.35508 -4.63808
1 -3.47068 -3.19205 -4.14719
1 -3.93065 -3.36839 -3.39336
1 -4.83878 -3.33006 -3.64128
1 -4.68614 -2.35777 -3.87111
1 -3.70697 -2.15826 -3.87939
1 -4.11095 -1.47321 -3.39684
1 -3.72985 -0.826509 -3.94633
1 -3.96583 0.88679 8.83002
1 -3.38737 1.54643 9.29447
1 -3.05282 2.41944 9.12955
1 -3.03066 2.75629 8.25974
1 -2.34219 3.40657 8.08614
1 -1.41787 3.24276 8.51146
1 -2.11902 2.73381 8.97454
1 -2.06332 3.69197 9.2127
1 -1.34831 3.23939 9.56288
1 -0.876151 2.45459 9.19021
1 -5.63398 -0.286314 9.0067
1 -4.7183 0.149721 8.84294
1 -5.01586 0.588655 9.6238
1 -5.53723 1.3775 9.41336
1 -5.21482 2.26943 9.19471
1 -4.51412 2.41711 9.81105
1 -3.94134 2.50024 10.5902
1 -3.4538 3.15232 -10.2574
1 -4.23766 2.89108 -9.76668
1 -3.96172 1.95071 -9.90404
1 3.64239 10.0408 9.6916
1 3.44732 -10.4855 9.46709
1 3.64558 -10.2541 8.57919
1 4.22428 -9.58351 8.11663
1 5.18152 -9.45313 8.03947
1 4.93084 -8.96735 8.80969
1 5.61668 -9.53827 9.23369
1 5.94403 -8.84798 9.75072
1 5.95522 -9.6944 10.1524
1 5.00508 -9.78529 10.1918
1 -5.26895 -1.5016 1.10209
1 -5.48349 -1.76933 0.123675
1 -5.37888 -2.70582 0.0703194
1 -5.68204 -3.55222 -0.20279
1 -5.33532 -3.65142 0.705233
1 -5.93276 -4.37927 0.846866
1 -6.39818 -4.64507 0.0312564
1 -7.28878 -4.71606 0.0437397
1 -7.88032 -5.22046 0.604869
1 -7.67044 -5.88215 -0.0549848
1 -2.39781 -5.5134 -6.58901
1 -2.39041 -6.55483 -6.53866
1 -3.0986 -6.64962 -7.20251
1 -4.02604 -6.38715 -7.42006
1 -3.66133 -6.39603 -8.27118
1 -2.99999 -7.08755 -8.12246
1 -2.36698 -7.7274 -8.22999
1 -2.02381 -8.57025 -8.55671
1 -2.11578 -9.44633 -9.04978
1 -2.58261 -8.71087 -9.5726
1 -9.14425 -10.2947 -3.83448
1 -8.9177 -10.0136 -3.00103
1 -8.02082 -9.86883 -3.15641
1 -7.32018 -9.89602 -3.83078
1 -7.34706 -9.08039 -4.39511
1 -6.53009 -9.20499 -3.93121
1 -6.29284 -10.0157 -3.32346
1 -6.75309 -9.91208 -2.48006
1 -6.38904 -9.14731 -2.01148
1 -5.88554 -9.15806 -2.75468
1 3.6505 -6.38024 -5.98513
1 3.52809 -7.3443 -6.0134
1 3.24819 -8.22798 -5.66965
1 2.34321 -8.31113 -5.46018
1 2.76481 -8.26555 -4.62368
1 2.60659 -9.16996 -4.64135
1 2.22533 -9.83013 -4.06978
1 1.93092 -10.6976 -4.19202
1 2.48663 10.0301 -4.38634
1 2.59624 9.48099 -5.18556
1 -9.96471 0.455219 -6.22985
1 -9.88615 1.35146 -6.0101
1 10.7081 1.373 -6.43603
1 -10.6075 0.753211 -7.13878
1 10.2865 -0.00436427 -6.80742
1 9.42883 -0.0126539 -6.28047
1 8.6325 0.627276 -6.14957
1 8.54409 1.49262 -6.57137
1 9.46386 1.33379 -6.18526
1 9.24317 2.0446 -5.48867
1 5.53019 -2.31599 0.00771608
1 5.12656 -1.79657 0.741487
1 5.89481 -1.51499 1.21767
1 5.37999 -1.57593 1.99748
1 4.83968 -1.73417 2.73671
1 4.13937 -1.1075 2.78162
1 3.79031 -1.87555 3.2247
1 3.21017 -1.24896 3.66931
1 2.44334 -1.11782 4.21129
1 3.06604 -0.994473 4.97555
1 2.78004 6.46281 6.91785
1 2.72123 5.51096 6.6799
1 3.14907 5.87257 5.96676
1 2.62995 5.92488 5.2092
1 2.77682 6.82804 5.15268
1 2.41471 6.66557 6.00231
1 2.09504 7.51208 6.40839
1 1.81751 7.61344 5.50434
1 1.64653 7.82076 4.57809
1 1.24671 7.0555 4.19793
1 -7.68059 1.57434 0.861805
1 -8.28421 2.02536 0.180039
1 -7.54272 2.52765 -0.218606
1 -6.8715 2.91788 -0.78788
1 -7.13111 3.46076 0.0040202
1 -6.52975 3.18086 0.67268
1 -7.18308 2.64166 1.04951
1 -8.00497 3.03507 0.725937
1 -8.5301 3.55564 1.24532
1 -8.30326 4.44995 1.0114
1 10.4341 -1.44536 7.86984
1 9.79581 -1.44568 7.12235
1 9.96096 -2.29952 6.66205
1 -10.6595 -2.41363 7.08334
1 -9.9708 -1.91613 7.57278
1 -9.76434 -2.49364 8.3604
1 -10.0574 -1.67721 8.69964
1 -9.54031 -1.37597 9.47275
1 -9.482 -1.64749 10.3457
1 -10.2903 -1.11652 10.6473
1 5.22724 -8.68307 2.57261
1 4.76079 -9.02417 3.34936
1 5.05281 -8.16347 3.72904
1 4.47863 -8.79005 4.28216
1 4.28815 -9.43808 4.94792
1 4.96134 -10.0537 5.31244
1 4.29834 -10.0753 6.02756
1 4.94152 -9.74871 6.63791
1 4.05686 -9.88165 7.04076
1 4.30495 10.6047 6.77703