units 		lj
dimension 	3

#atom_style	bond
# if there are angular potentials, use next line
atom_style	angle
angle_style	cosine

read_data k{1}t{1.2}p{0.0}f{5}n{8000}npt.lmp #comment me after t1.2
  orthogonal box = (-10 -10 -10) to (10 10 10)
  2 by 2 by 2 MPI processor grid
  reading atoms ...
  8000 atoms
  reading velocities ...
  8000 velocities
  scanning bonds ...
  1 = max bonds/atom
  scanning angles ...
  1 = max angles/atom
  reading bonds ...
  7200 bonds
  reading angles ...
  320 angles
  2 = max # of 1-2 neighbors
  2 = max # of 1-3 neighbors
  4 = max # of 1-4 neighbors
  6 = max # of special neighbors
  special bonds CPU = 0.00654793 secs
  read_data CPU = 0.08202 secs
#read_restart k${k}t${T}p${p}f${f}n${n}npt-1.res #todo: use both instead of 1? talk to Starr

pair_style	lj/cut	2.5
#when using global * * the cutoff should be the smallest of all possible pairs
pair_coeff	* *	1.0 1.0 2.5  #final 2.5 is redundant here; can override global
pair_modify	shift	yes

bond_style	fene
bond_coeff	1	30 1.5		1.0 1.0
special_bonds fene
  2 = max # of 1-2 neighbors
  6 = max # of special neighbors
  special bonds CPU = 0.00254488 secs

angle_coeff 	1 ${k}
angle_coeff 	1 1

fix	1	all npt	temp ${T} ${T}  1.0   iso ${p} ${p} 5.0 #todo: is this what f is?
fix	1	all npt	temp 1.2 ${T}  1.0   iso ${p} ${p} 5.0 
fix	1	all npt	temp 1.2 1.2  1.0   iso ${p} ${p} 5.0 
fix	1	all npt	temp 1.2 1.2  1.0   iso 0.0 ${p} 5.0 
fix	1	all npt	temp 1.2 1.2  1.0   iso 0.0 0.0 5.0 
#starting temperature/ending Temperature/Tdamp
fix cmvel all momentum 1000 linear 1 1 1

# todo: find a way to store energy between two different types of poly chains
thermo_style custom step ke pe etotal epair ebond eangle press temp lx vol
thermo 1000

dump 1 all xyz	100000	dump${k}.xyz
dump 1 all xyz	100000	dump1.xyz

restart 1000 k${k}t${T}p${p}f${f}n${n}npt-1.res k${k}t${T}p${p}f${f}n${n}npt-2.res
restart 1000 k1t${T}p${p}f${f}n${n}npt-1.res k${k}t${T}p${p}f${f}n${n}npt-2.res
restart 1000 k1t1.2p${p}f${f}n${n}npt-1.res k${k}t${T}p${p}f${f}n${n}npt-2.res
restart 1000 k1t1.2p0.0f${f}n${n}npt-1.res k${k}t${T}p${p}f${f}n${n}npt-2.res
restart 1000 k1t1.2p0.0f5n${n}npt-1.res k${k}t${T}p${p}f${f}n${n}npt-2.res
restart 1000 k1t1.2p0.0f5n8000npt-1.res k${k}t${T}p${p}f${f}n${n}npt-2.res
restart 1000 k1t1.2p0.0f5n8000npt-1.res k1t${T}p${p}f${f}n${n}npt-2.res
restart 1000 k1t1.2p0.0f5n8000npt-1.res k1t1.2p${p}f${f}n${n}npt-2.res
restart 1000 k1t1.2p0.0f5n8000npt-1.res k1t1.2p0.0f${f}n${n}npt-2.res
restart 1000 k1t1.2p0.0f5n8000npt-1.res k1t1.2p0.0f5n${n}npt-2.res
restart 1000 k1t1.2p0.0f5n8000npt-1.res k1t1.2p0.0f5n8000npt-2.res

#run_style respa 2 3 bond 1 pair 2
#timestep 0.006

timestep 0.002

run 10000000
Neighbor list info ...
  update every 1 steps, delay 10 steps, check yes
  max neighbors/atom: 2000, page size: 100000
  master list distance cutoff = 2.8
  ghost atom cutoff = 2.8
  binsize = 1.4, bins = 15 15 15
  1 neighbor lists, perpetual/occasional/extra = 1 0 0
  (1) pair lj/cut, perpetual
      attributes: half, newton on
      pair build: half/bin/newton
      stencil: half/bin/3d/newton
      bin: standard
WARNING: Inconsistent image flags (../domain.cpp:785)
Per MPI rank memory allocation (min/avg/max) = 6.496 | 6.516 | 6.649 Mbytes
Step KinEng PotEng TotEng E_pair E_bond E_angle Press Temp Lx Volume 
       0   0.48448444    12.711503    13.195987   -5.6481987    18.329377  0.030324602   -1.5880033   0.32303001           20         8000 
    1000   0.71461111    12.712796    13.427407   -5.7115654    18.394662  0.029698869  0.055084815   0.47646696    19.832496    7800.6742 
    2000    0.9001149    12.937481    13.837596   -5.5421868    18.450488  0.029180234   0.21988809   0.60015162    19.947314    7936.9428 
    3000    1.0770393    13.274392    14.351431   -5.2726041    18.518794  0.028201832   0.21280067   0.71811598     20.14985    8181.1711 
    4000    1.2875196    13.648863    14.936382   -4.9551438    18.576918  0.027088262   0.26223132   0.85845372    20.398817     8488.187 
    5000    1.5237255    14.025387    15.549113   -4.6325815    18.632011  0.025957297   0.28001708     1.015944    20.692989    8860.7339 
    6000    1.6975405    14.420712    16.118252   -4.3198155    18.713523   0.02700392   0.28656475    1.1318352     20.99228    9250.7902 
    7000     1.835339    14.671907    16.507246   -4.0899963    18.734435  0.027468565   0.20884597    1.2237123    21.257662    9606.0861 
    8000    1.7932938    14.784155    16.577449   -3.9856039    18.741666  0.028093104  0.017469316    1.1956786    21.414651    9820.4872 
    9000    1.7928875    14.759417    16.552304   -3.9813951     18.71429  0.026521659  0.035158193    1.1954078    21.425113    9834.8868 
   10000    1.8078991    14.763027    16.570926   -3.9945665    18.730577  0.027016831 -0.0079751367    1.2054167    21.422916    9831.8621 
   11000     1.795839    14.745648    16.541487   -4.0052982    18.723792  0.027153585   0.21147881    1.1973757    21.406155    9808.8028 
   12000    1.8045947    14.734662    16.539257   -4.0283238     18.73618  0.026806043 -0.020727695    1.2032136    21.394448    9792.7187 
   13000    1.7990239    14.752832    16.551856    -4.006102    18.732988  0.025946497 -0.064751306    1.1994992    21.407252     9810.311 
   14000     1.813024    14.736714    16.549738   -4.0001033    18.710566  0.026251017   0.14363262    1.2088337     21.41027    9814.4606 
   15000    1.7833977     14.76926    16.552658   -3.9800306    18.723491  0.025800035  -0.14721784    1.1890804    21.441959    9858.1035 
   16000    1.8015205    14.779118    16.580638   -3.9779291    18.730616  0.026430572 -0.078029257    1.2011638    21.432248    9844.7159 
   17000    1.8331579    14.718563     16.55172   -4.0294932    18.719802  0.028253853   0.12334537     1.222258    21.390168    9786.8422 
   18000    1.8011725    14.715771    16.516944   -4.0313147    18.720393  0.026692631  -0.22071331    1.2009318    21.382958    9776.9487 
   19000    1.8061682    14.745536    16.551704   -4.0047807    18.724248  0.026068665   0.20065906    1.2042627    21.383789    9778.0887 
   20000    1.7945828    14.763881    16.558464   -3.9946101    18.732036  0.026455395  -0.15550479    1.1965381    21.448507    9867.1375 
   21000    1.8133757     14.76646    16.579836   -3.9871289    18.727051  0.026537745  0.022642657    1.2090683    21.422065    9830.6899 
   22000    1.7930061    14.751193    16.544199   -4.0049456    18.730538  0.025600934 -0.022392747    1.1954869    21.418758    9826.1384 
   23000    1.7929604    14.766241    16.559201   -4.0060514    18.747379  0.024913862   0.18163597    1.1954564    21.399389    9799.5042 
   24000     1.779938    14.772378    16.552316   -3.9769371    18.724588  0.024727572  -0.19905134    1.1867737    21.434197    9847.4011 
   25000    1.8087292    14.754728    16.563457   -3.9979144    18.726676  0.025966585  0.070296422    1.2059702    21.395758    9794.5173 
   26000    1.7863328    14.746423    16.532756   -3.9928443    18.714632  0.024635318 -0.071042674    1.1910374    21.421134    9829.4087 
   27000    1.8146807    14.734891    16.549572   -4.0228927    18.732488  0.025295574 -0.094057922    1.2099384    21.404551    9806.5982 
   28000    1.7937361    14.771597    16.565333   -3.9838642    18.729923  0.025538462  0.027960806    1.1959736    21.425929    9836.0111 
   29000    1.8020769    14.767205    16.569282   -3.9905939    18.731297  0.026502184  -0.12995268    1.2015348    21.435681    9849.4471 
   30000     1.796263    14.761703    16.557966   -3.9954899    18.730671  0.026522204  0.047066029    1.1976584    21.420051    9827.9179 
   31000    1.8055174    14.733213    16.538731   -4.0194491    18.726849  0.025813465 -0.013076589    1.2038288    21.381562    9775.0345 
   32000    1.7801914    14.747869     16.52806   -4.0061267     18.72893  0.025065745 -0.072100906    1.1869426    21.410466    9814.7304 
   33000    1.8170822    14.773204    16.590286   -3.9840249    18.733157  0.024071354  -0.12016857    1.2115396    21.442812    9859.2804 
   34000    1.8137343    14.766136     16.57987    -3.986022    18.727316  0.024842043  -0.14919433    1.2093074    21.442762    9859.2112 
   35000    1.7836953     14.73572    16.519415   -4.0176801     18.72743   0.02596974  0.039289646    1.1892788    21.375698    9766.9935 
   36000    1.7954504    14.704381    16.499831   -4.0497486    18.728369  0.025760829 -0.090948078    1.1971166    21.360748    9746.5157 
   37000    1.7939421    14.758502    16.552444   -3.9953647    18.728981  0.024885557 -0.008213928    1.1961109    21.423677      9832.91 
   38000    1.8102234    14.791758    16.601981   -3.9641599    18.731473  0.024444497  -0.14118678    1.2069665    21.466049    9891.3675 
   39000    1.7963757    14.778567    16.574942   -3.9918963    18.745721  0.024741854 -0.049758632    1.1977335    21.435337     9848.973 
   40000     1.789583     14.73324    16.522823   -4.0139763    18.722443  0.024773353  0.084871726    1.1932045    21.407399    9810.5126 
   41000    1.8177802    14.731309    16.549089   -4.0236412    18.729407  0.025542878  0.041697914     1.212005    21.373246    9763.6327 
   42000    1.7782242    14.743123    16.521348   -4.0071225    18.724265   0.02598051  -0.13214241     1.185631    21.413159    9818.4337 
   43000     1.800714    14.762931    16.563645   -3.9980153    18.734726  0.026220845  0.022901268    1.2006261    21.415293    9821.3699 
   44000    1.7848637    14.799316     16.58418   -3.9637911    18.739445  0.023661927 -0.085197773    1.1900579    21.455481    9876.7663 
   45000    1.8141801    14.756181    16.570361   -4.0017365     18.73277   0.02514765  0.047151943    1.2096046    21.396555    9795.6112 
   46000     1.763251    14.754045    16.517297   -3.9934344    18.722674  0.024805362  -0.11780523    1.1756477    21.420966    9829.1772 
   47000    1.8068818    14.757666    16.564547   -3.9996356    18.731304  0.025997619   0.20797195    1.2047385    21.380588    9773.6982 
   48000    1.7938003     14.76549     16.55929    -3.984385    18.723561  0.026313881  0.033477144    1.1960164    21.459134     9881.812 
   49000    1.8164605    14.755448    16.571908   -4.0042597    18.732614  0.027093907   0.10155324    1.2111251    21.386622    9781.9751 
   50000    1.7818893    14.734945    16.516834   -3.9961755    18.704525  0.026595842 -0.025946799    1.1880747    21.411688    9816.4102 
   51000    1.8082447    14.754187    16.562432   -4.0024927    18.730458  0.026221346 -0.0065946679    1.2056471    21.401742    9802.7375 
   52000    1.8099936    14.757711    16.567705   -3.9973011    18.727565  0.027447139  -0.14267876    1.2068133    21.421551    9829.9824 
   53000    1.7980901    14.754942    16.553032   -4.0018504    18.729606  0.027186408  -0.18039476    1.1988766    21.437787    9852.3506 
   54000    1.8176687     14.76299    16.580659   -3.9962901    18.732934  0.026345975 -0.049855908    1.2119306    21.414758    9820.6339 
   55000    1.7870681    14.754105    16.541173   -4.0060659    18.735076  0.025094775  -0.23680784    1.1915277    21.431606    9843.8312 
   56000    1.8254779     14.71365    16.539128   -4.0241571    18.712472   0.02533545  0.032734761    1.2171374    21.368738    9757.4567 
   57000    1.7844347     14.74961    16.534045   -4.0096452    18.733715  0.025540778  0.010175303    1.1897718    21.402505    9803.7858 
   58000     1.814589    14.738833    16.553422   -4.0040894    18.717152  0.025770118 -0.060170306    1.2098772     21.41338    9818.7387 
   59000    1.8036191    14.796611     16.60023   -3.9628802    18.734344  0.025147253 0.0032879266     1.202563     21.47521    9904.0377 
   60000     1.787965    14.797726    16.585691   -3.9797874    18.750707  0.026806305  -0.31250579    1.1921257    21.441494    9857.4622 
   61000    1.8046106    14.725096    16.529707   -4.0198887    18.717639  0.027345629   0.16420279    1.2032241    21.389998    9786.6092 
   62000     1.777725    14.770717    16.548442   -3.9835609    18.727283  0.026994802  -0.15787746    1.1852982    21.436127    9850.0618 
   63000    1.8121546    14.783607    16.595762   -3.9827655    18.740165  0.026207976  0.075456514    1.2082541    21.421224     9829.532 
   64000    1.7906431    14.746471    16.537115   -4.0011052    18.721331  0.026245936   0.10045829    1.1939113    21.420961    9829.1706 
   65000    1.8039497    14.729966    16.533915   -4.0131773    18.715998  0.027145194  0.091442253    1.2027835    21.389812    9786.3532 
   66000     1.793993    14.793188    16.587181   -3.9682871    18.734221  0.027253409 -0.043141619    1.1961449    21.455562    9876.8773 
   67000    1.8109516    14.775556    16.586507   -3.9746007    18.724286  0.025870065 -0.022664239     1.207452    21.447526    9865.7837 
   68000     1.801991    14.748775    16.550766   -4.0095828    18.732894  0.025463305  -0.13876836    1.2014775     21.40892    9812.6047 
   69000    1.7708185    14.746294    16.517113   -4.0083927    18.728586  0.026100423   0.13933236    1.1806932    21.396772    9795.9099 
   70000    1.8009024    14.778639    16.579541   -4.0039943    18.756149  0.026483893  0.034020339    1.2007517    21.405719    9808.2026 
   71000    1.7721545    14.798476    16.570631   -3.9584584    18.732289  0.024645371  0.043191401     1.181584    21.457635     9879.741 
   72000    1.8217718    14.739972    16.561744   -4.0009203    18.715428  0.025464056  0.043293512    1.2146664    21.404593     9806.655 
   73000    1.7861903    14.745373    16.531564   -4.0009722    18.719862  0.026483985 -0.034813724    1.1909424     21.41188    9816.6742 
   74000    1.8039553    14.744587    16.548542   -4.0039853    18.722239  0.026332799   0.12644247    1.2027872    21.410743    9815.1106 
   75000    1.7847624     14.80679    16.591552   -3.9711896    18.752765  0.025214944   -0.1235089    1.1899903    21.448531    9867.1707 
   76000    1.8037715    14.762565    16.566336   -3.9868302    18.724374  0.025021306  -0.02590556    1.2026647     21.43849    9853.3197 
   77000    1.8063217    14.728793    16.535115   -4.0238828    18.724596  0.028079524   0.34353838     1.204365    21.366217    9754.0038 
   78000    1.7905245    14.736205     16.52673   -4.0059011    18.717118  0.024988727  -0.15901738    1.1938322    21.420386    9828.3789 
   79000    1.8118673    14.761262     16.57313   -3.9998185     18.73659  0.024490893   0.20844279    1.2080625    21.377813    9769.8931 
   80000    1.7875017    14.744406    16.531908   -3.9993875    18.718911  0.024882427 -0.019126797    1.1918168     21.43675    9850.9202 
   81000     1.819856    14.755359    16.575215   -3.9968973    18.726951  0.025304507  0.095537702     1.213389    21.403825    9805.6007 
   82000    1.7746221      14.7824    16.557022   -3.9733293    18.730764   0.02496486 -0.055187153    1.1832293    21.438348    9853.1234 
   83000    1.7990151    14.751061    16.550076   -3.9986429    18.725079  0.024625141  0.020220706    1.1994933    21.410354    9814.5759 
   84000    1.7999921      14.7519    16.551892   -4.0034145    18.728273  0.027041228 -0.075116112    1.2001448    21.402001    9803.0932 
   85000    1.8158254    14.732704    16.548529   -4.0056986    18.712596  0.025806337  0.037237814    1.2107016    21.406526    9809.3131 
   86000    1.8228177    14.770541    16.593359    -3.968637     18.71383   0.02534795  -0.10450064    1.2153637    21.449034    9867.8656 
   87000    1.7948649    14.770191    16.565056   -3.9944941    18.737824  0.026861621  0.083982967    1.1967262     21.43623    9850.2044 
   88000    1.7924428     14.75739    16.549833    -4.001522    18.732397  0.026514698   0.38623098    1.1951113    21.395062    9793.5611 
   89000    1.7705958    14.776308    16.546903   -3.9864765    18.735648   0.02713628 0.00040567348    1.1805448    21.441645    9857.6709 
   90000    1.8189071    14.779465    16.598372   -3.9827992    18.736912  0.025351697 -0.093948027    1.2127563    21.426164    9836.3346 
   91000    1.8069577    14.747309    16.554267   -4.0013281    18.721267  0.027369602 -0.012193157    1.2047891    21.407173    9810.2025 
   92000    1.7946202    14.756216    16.550836   -3.9942653    18.724609  0.025872431   0.25793391     1.196563    21.425351    9835.2148 
   93000    1.8164601      14.7917     16.60816   -3.9733776    18.738748  0.026329325  -0.01096553    1.2111248    21.445081     9862.411 
   94000    1.8050697    14.790753    16.595823   -3.9733108    18.736886  0.027178709  0.047669553    1.2035303    21.454084     9874.837 
   95000     1.794964    14.757167    16.552131   -3.9896248    18.719398  0.027393585   -0.1070718    1.1967923    21.407333    9810.4222 
   96000    1.8055612    14.751225    16.556786   -4.0011932    18.727235  0.025182947  0.026389718     1.203858    21.428625    9839.7246 
   97000    1.8210445    14.772616     16.59366   -3.9894252    18.735311  0.026730351   0.20368398    1.2141814    21.415882    9822.1799 
   98000    1.7888264    14.796791    16.585617   -3.9693345    18.740011  0.026113905 -0.0089316979       1.1927    21.482162    9913.6592 
   99000    1.8135937    14.764287    16.577881   -3.9986377     18.73612   0.02680462  0.053312896    1.2092136    21.412337    9817.3039 
  100000    1.7753737    14.759302    16.534675   -3.9957471    18.729205  0.025844127 -0.034492685    1.1837304     21.41262     9817.692 
  101000    1.8141953    14.755534    16.569729   -4.0091935    18.739457  0.025270985 -0.035560167    1.2096147    21.412675    9817.7685 
  102000    1.8009521     14.82654    16.627492   -3.9408522    18.742633  0.024758655  0.026568249    1.2007848    21.468246    9894.4055 
  103000    1.8209556    14.751152    16.572108   -3.9980445    18.724098  0.025098237  -0.31478216    1.2141222    21.424368    9833.8605 
  104000    1.8006917    14.733627    16.534318   -4.0118008    18.720241  0.025186865  -0.07499575    1.2006112    21.398415    9798.1662 
  105000    1.8097911    14.748637    16.558428   -4.0129043    18.735307  0.026234763  0.056618665    1.2066782    21.393268    9791.0978 
  106000     1.812951    14.777203    16.590154   -3.9733268    18.724485  0.026045247  0.019917954    1.2087851    21.463392    9887.6954 
  107000    1.8058071    14.758074    16.563881   -3.9979635    18.729177   0.02686062    0.1617839    1.2040219     21.40338    9804.9889 
  108000    1.8064439    14.731902    16.538346   -4.0285308    18.733925  0.026508387 -0.050556043    1.2044465    21.393202    9791.0072 
  109000    1.7784236    14.727564    16.505988   -4.0365277     18.73816  0.025932125 0.0016891947    1.1857639    21.378227    9770.4608 
  110000    1.8075736    14.747422    16.554996   -3.9999569    18.719569  0.027810267  0.015786264    1.2051997    21.421814    9830.3446 
  111000    1.7972867    14.771361    16.568648   -3.9803974    18.725168  0.026590218 0.00058002729    1.1983409    21.443168     9859.771 
  112000    1.7853854    14.750201    16.535586   -4.0033111     18.72614  0.027371937  0.010866101    1.1904057    21.395785    9794.5541 
  113000    1.7908227    14.705321    16.496144   -4.0396444    18.718189  0.026776591   0.13815856    1.1940311    21.359477    9744.7758 
  114000    1.7964955    14.767664     16.56416   -3.9895796    18.731478  0.025765534  0.041179091    1.1978134    21.439898    9855.2607 
  115000    1.8194578    14.762697    16.582154   -3.9938996    18.731419  0.025176891   0.12156113    1.2131235    21.407171    9810.2001 
  116000    1.7837243    14.747526    16.531251   -3.9906878    18.712071  0.026143133  0.060459727    1.1892982     21.41439    9820.1269 
  117000    1.8211609    14.755196    16.576357   -3.9958475    18.725654  0.025389183 -0.0076262005     1.214259    21.428096    9838.9951 
  118000    1.8156054    14.736184    16.551789   -4.0050003    18.717681  0.023503793  0.039250046    1.2105549    21.420945    9829.1474 
  119000    1.7945284    14.763727    16.558256   -3.9908234    18.727799  0.026751591 -0.005928712    1.1965018    21.435241    9848.8406 
  120000    1.8022896      14.7651    16.567389   -3.9953527    18.733948  0.026504235 -0.0054624253    1.2016766    21.438048    9852.7101 
  121000    1.8077736    14.752924    16.560698    -3.992938    18.719647  0.026214861   0.12916861    1.2053331    21.389927     9786.511 
  122000    1.7813501    14.736971    16.518322   -4.0023607    18.712306  0.027026143 -0.021548379    1.1877152    21.412773    9817.9029 
  123000    1.8047388    14.767816    16.572555   -3.9906675    18.731284  0.027200211  0.023464355    1.2033096    21.422488    9831.2725 
  124000     1.780318    14.782189    16.562507   -3.9846119    18.741204  0.025597081 -0.0043985983     1.187027    21.435194    9848.7757 
  125000    1.8011911    14.736896    16.538087   -4.0142285    18.725439  0.025685078 0.0056592826    1.2009442    21.404197    9806.1115 
  126000    1.7797034     14.72689    16.506593   -4.0295421    18.728649  0.027783172  0.091698789    1.1866172    21.385029    9779.7899 
  127000    1.8022762     14.75442    16.556696    -3.996118      18.7235  0.027037949  0.063480737    1.2016677     21.40916     9812.934 
  128000     1.799654     14.76409    16.563744   -3.9933958    18.731231   0.02625486 -0.029870498    1.1999193    21.429334    9840.7004 
  129000    1.8160897    14.753031     16.56912   -3.9936062    18.721963   0.02467352    0.1024119    1.2108778     21.42437    9833.8636 
  130000    1.7916241     14.77373    16.565354    -3.972311    18.720887  0.025153936 -0.068110991    1.1945654    21.486359    9919.4702 
  131000    1.8237484    14.761964    16.585713   -4.0024718    18.740417   0.02401935   0.11114635    1.2159843    21.398175    9797.8367 
  132000     1.807123     14.74265    16.549773    -4.009708    18.726981  0.025377114  0.027355066    1.2048993    21.405206    9807.4975 
  133000    1.7664868    14.733477    16.499963    -4.027703     18.73602  0.025159191 -0.086598199    1.1778051    21.376882    9768.6173 
  134000     1.776433    14.738147     16.51458    -4.022922    18.736365  0.024704266 -0.058702051    1.1844367    21.375211    9766.3268 
  135000    1.8174973    14.731942    16.549439   -4.0126043    18.721547   0.02299987  0.079503443    1.2118163    21.388358    9784.3574 
  136000    1.7952235    14.753745    16.548969    -3.996515    18.725674  0.024586348 -0.029855367    1.1969653     21.44449    9861.5955 
  137000    1.7895503    14.732673    16.522223   -4.0064333    18.714558  0.024548186   0.24816092    1.1931827    21.368526    9757.1663 
  138000    1.7848317    14.733827    16.518659    -4.020435    18.729126  0.025136853  -0.17312221    1.1900365    21.387064    9782.5829 
  139000    1.7896564    14.778324    16.567981   -3.9829648    18.736248  0.025041134  0.056322824    1.1932535    21.439522    9854.7435 
  140000    1.8146484    14.783126    16.597775   -3.9768858    18.736015  0.023997326  0.041024429    1.2099168    21.418376    9825.6116 
  141000    1.7623453     14.80298    16.565325   -3.9495818    18.727549  0.025012031  0.018816153    1.1750437    21.475896    9904.9865 
  142000    1.8299044    14.749682    16.579587    -4.008934    18.733867  0.024749333  -0.10950664    1.2200888    21.403522    9805.1833 
  143000    1.7539773    14.769374    16.523351   -3.9832373    18.726134  0.026476844  0.026000927    1.1694644    21.444618    9861.7721 
  144000    1.8073136    14.750517    16.557831   -4.0098587    18.733533   0.02684294  0.084781404    1.2050264    21.410048    9814.1548 
  145000    1.8129178     14.75073    16.563648    -3.995917    18.720744  0.025902717 -0.039463961     1.208763    21.425214    9835.0258 
  146000    1.7788472     14.76817    16.547017    -3.988848    18.730659  0.026358947  0.073367983    1.1860464    21.413986    9819.5723 
  147000    1.8282045    14.742138    16.570342   -4.0039024    18.719398  0.026642233  0.085608356    1.2189554    21.420642    9828.7305 
  148000    1.7607399    14.784891    16.545631   -3.9853995    18.743228  0.027062022  -0.12330551    1.1739733    21.425613    9835.5748 
  149000    1.8247107    14.711315    16.536025   -4.0322579     18.71658  0.026992536  0.086692163    1.2166259     21.38258    9776.4308 
  150000     1.779615    14.767856    16.547471   -3.9903749     18.73175  0.026480868 -0.058589475    1.1865583     21.42708    9837.5955 
  151000    1.8241899    14.764999    16.589188   -4.0018862     18.73969  0.027194858 -0.047906546    1.2162786    21.427377    9838.0043 
  152000     1.769441    14.757959      16.5274   -3.9977668    18.728287  0.027438564  -0.15416958    1.1797748    21.427381    9838.0097 
  153000    1.8049443    14.719963    16.524907   -4.0255402    18.719377  0.026125953 0.0074244064    1.2034466    21.374977    9766.0061 
  154000    1.7897839    14.797492    16.587275   -3.9581774    18.729715  0.025954041   0.12812487    1.1933384    21.455165    9876.3302 
  155000     1.813925     14.77914    16.593065   -3.9807281    18.735213  0.024654854  0.073321165    1.2094345    21.437129    9851.4438 
  156000    1.7880111    14.750939     16.53895   -3.9953792    18.721553  0.024765018  0.038829865    1.1921564    21.425723    9835.7274 
  157000    1.8205731    14.736242    16.556815   -4.0173588    18.728132  0.025469036 -0.084147325    1.2138671    21.398818    9798.7199 
  158000    1.7825026    14.769625    16.552128   -3.9862618    18.729585   0.02630182 -0.071740483    1.1884836    21.422706    9831.5722 
  159000    1.7838368    14.782153     16.56599   -3.9836607    18.739715  0.026098183   0.13968269    1.1893732    21.422403    9831.1552 
  160000    1.8010955    14.782552    16.583647   -3.9611775    18.719268  0.024461305   0.15735019    1.2008804    21.450017    9869.2228 
  161000    1.7990413    14.765813    16.564854   -3.9742084    18.714883  0.025137733  0.053570401    1.1995108     21.43331    9846.1796 
  162000    1.7825939    14.756364    16.538958   -4.0006269    18.730872  0.026118872   0.10579848    1.1885445    21.406992     9809.954 
  163000    1.8166705    14.779209     16.59588   -3.9918281    18.745976  0.025061906  0.075665465    1.2112651    21.416053    9822.4153 
  164000    1.7718303     14.76199    16.533821   -4.0019893    18.737351  0.026628891   0.13397425    1.1813679    21.434094    9847.2597 
  165000    1.8030867    14.734877    16.537964   -4.0025354    18.711321  0.026090959  0.049475312    1.2022081    21.416888    9823.5643 
  166000    1.7948635    14.772623    16.567486    -3.974914    18.721379  0.026157879   -0.1345951    1.1967252    21.431852    9844.1698 
  167000    1.8175561    14.745114     16.56267   -4.0011092    18.723063  0.023160658 -0.055307104    1.2118556    21.416665    9823.2574 
  168000    1.7987091    14.743055    16.541764   -4.0066227    18.726726  0.022951833 -0.081779184    1.1992893    21.397982    9797.5717 
  169000    1.7695592    14.719731     16.48929   -4.0302748      18.7267  0.023305358  0.032616316    1.1798536    21.383432    9777.5985 
  170000    1.8044334    14.738763    16.543197   -4.0139559    18.728082  0.024637039  0.009239929     1.203106    21.407577    9810.7579 
  171000    1.8171446    14.768814    16.585959   -3.9803903    18.725523   0.02368162 -0.082848688    1.2115812    21.458729    9881.2523 
  172000    1.8236213    14.751175    16.574796   -3.9982641    18.725612  0.023826302 -0.049761721    1.2158995    21.422791    9831.6888 
  173000    1.7962264    14.766504    16.562731   -3.9895409    18.731017  0.025028493   0.02639225     1.197634    21.433858    9846.9343 
  174000    1.8063817    14.744229    16.550611   -4.0193456     18.73894  0.024635108 -0.034080486     1.204405    21.410301     9814.503 
  175000    1.8030367    14.707905    16.510941   -4.0326278    18.715521  0.025010892  -0.16004488    1.2021747    21.379786     9772.599 
  176000    1.7799191    14.769358    16.549277   -3.9830962    18.727924  0.024529844 0.0053399579    1.1867611    21.431275    9843.3753 
  177000    1.8261563    14.748926    16.575082   -3.9884578    18.715427   0.02195616 -0.014764699    1.2175897    21.439383    9854.5517 
  178000    1.8038061    14.731546    16.535352   -4.0142605    18.722691  0.023114838  -0.20823423    1.2026877    21.411355    9815.9527 
  179000    1.7862739    14.752208    16.538481   -4.0082283    18.736592   0.02384346 -0.0013258092    1.1909981    21.384085    9778.4955 
  180000    1.7918345    14.758484    16.550319   -3.9983558     18.73298  0.023859865 -0.031880082    1.1947057    21.419647     9827.361 
  181000     1.808257    14.758851    16.567109   -3.9937738    18.728309  0.024316093 -0.017465552    1.2056554    21.419311    9826.8992 
  182000    1.7995602    14.764927    16.564487   -3.9955818    18.735301  0.025208288 -0.087155101    1.1998568    21.419392    9827.0111 
  183000    1.7900546    14.768725     16.55878   -3.9911023    18.733426  0.026401506  -0.10261504    1.1935189    21.427309    9837.9108 
  184000    1.7953304    14.742167    16.537497   -4.0106029    18.725911  0.026858746   0.13467928    1.1970366    21.393981    9792.0776 
  185000    1.8016172    14.804636    16.606253   -3.9640826    18.742039  0.026679221   0.20833094    1.2012283    21.444686    9861.8656 
  186000    1.8093399    14.772143    16.581483   -3.9858118    18.730906  0.027049078  -0.17506104    1.2063774    21.452796    9873.0578 
  187000     1.769721    14.748216    16.517937    -4.001095    18.723009   0.02630157   0.11326354    1.1799615    21.407582     9810.764 
  188000    1.7970494    14.734933    16.531983   -4.0103864    18.721056  0.024263723  -0.21047846    1.1981827    21.390309    9787.0354 
  189000    1.7931035    14.798029    16.591132   -3.9709512     18.74429   0.02468978  0.011048581    1.1955518    21.435427    9849.0976 
  190000    1.8172918    14.763103    16.580394   -3.9891214    18.726133  0.026090646 0.00027512409    1.2116793    21.446545    9864.4306 
  191000    1.7952581    14.747086    16.542344   -4.0167901    18.736972  0.026904254   -0.1633432    1.1969884    21.399846    9800.1327 
  192000    1.7815287    14.760746    16.542275    -3.988752    18.724011  0.025487161   0.11076318    1.1878343    21.411578      9816.26 
  193000    1.8148519    14.790191    16.605043   -3.9653746    18.731063  0.024502873   0.07857136    1.2100525    21.457318    9879.3033 
  194000    1.7889941    14.771892    16.560886   -3.9816489    18.729296  0.024244912   0.17115165    1.1928118    21.433164    9845.9781 
  195000     1.795365    14.743699    16.539064   -4.0059773    18.725165  0.024511257   0.12279166    1.1970596    21.401567    9802.4964 
  196000    1.8094081     14.74669    16.556098   -4.0011318    18.723244  0.024577965 -0.062592197    1.2064229    21.423514    9832.6853 
  197000    1.8043142    14.764032    16.568346   -3.9804271    18.720301  0.024158612   -0.1514582    1.2030265    21.439534    9854.7597 
  198000    1.8119249    14.745959    16.557884   -4.0055849    18.727011  0.024533328 -0.042223531    1.2081009    21.410821    9815.2186 
  199000     1.792149    14.758117    16.550266   -3.9952393    18.727466  0.025890314  -0.05047506    1.1949154    21.437162    9851.4882 
  200000    1.8312328    14.733525    16.564758   -4.0052291    18.714154  0.024600937  0.086585944    1.2209745    21.386815    9782.2404 
  201000    1.7937729    14.737614    16.531387   -4.0025817    18.713093  0.027102943 -0.024760263    1.1959981    21.406166    9808.8178 
  202000     1.823274    14.730412    16.553687   -4.0129922    18.717546  0.025859207   0.01054896     1.215668    21.394503    9792.7941 
  203000    1.8213981    14.757721    16.579119   -3.9960214    18.728701  0.025041643  0.011215468    1.2144172    21.439633    9854.8953 
  204000    1.8018097    14.775278    16.577088   -3.9717207     18.72204  0.024958886  0.045207056    1.2013566     21.45573    9877.1098 
  205000    1.7997468    14.736705    16.536452   -4.0013871    18.712887   0.02520488 0.0040089016    1.1999812    21.404637    9806.7165 
  206000    1.7996973    14.770078    16.569775   -3.9878298    18.731721  0.026186554  -0.17438516    1.1999482    21.421859    9830.4058 
  207000     1.821221    14.765327    16.586548   -3.9933566    18.732749   0.02593513  0.028111636    1.2142991    21.423845    9833.1408 
  208000    1.7862433    14.748034    16.534278   -4.0151328    18.737639   0.02552852 -0.082195573    1.1909777    21.398799    9798.6947 
  209000    1.7757978    14.768209    16.544007   -3.9941522    18.737186  0.025175455  0.018948659    1.1840132    21.408658    9812.2442 
  210000    1.8292812    14.76555