LAMMPS (19 Mar 2020)
# Abstract LAMMPS input file

variable k world 1
variable T world 1.2
variable p world 0.0
variable n world 8000
variable f world 5 # world ensures leading zeros get passed

log k${k}t${T}p${p}f${f}n${n}npt.log #todo: learn string parsing in lammps
log k1t${T}p${p}f${f}n${n}npt.log 
log k1t1.2p${p}f${f}n${n}npt.log 
log k1t1.2p0.0f${f}n${n}npt.log 
log k1t1.2p0.0f5n${n}npt.log 
log k1t1.2p0.0f5n8000npt.log 
