8000
Atoms. Timestep: 10000000
1 7.37513 0.767081 2.4109
1 8.06617 0.458175 1.80791
1 8.45523 0.571741 0.872804
1 9.18914 0.633923 0.196994
1 9.45375 0.376953 1.04889
1 9.14914 1.06722 1.65502
1 9.37318 1.92913 2.10474
1 8.77805 2.4871 2.72677
1 8.92304 3.40334 2.73348
1 8.2462 3.72775 2.12398
1 -3.73734 -3.04491 -7.02555
1 -4.56052 -2.7259 -6.70444
1 -5.0562 -1.84364 -6.99127
1 -5.03936 -0.9148 -6.7918
1 -4.68434 -0.723081 -7.68669
1 -4.41081 -1.04668 -8.60623
1 -4.05413 -0.148999 -8.43393
1 -3.53153 -0.736847 -7.91015
1 -3.39565 -1.65238 -7.61873
1 -3.55632 -1.65611 -8.58375
1 7.86232 2.694 2.32509
1 7.21783 2.41067 2.95774
1 6.70984 3.1686 3.26442
1 5.79298 2.83432 3.32749
1 6.06558 2.26186 2.51324
1 5.32472 2.82243 2.25003
1 5.598 3.72331 2.11811
1 4.71083 3.92854 2.02961
1 4.57503 4.64089 1.40803
1 5.15691 5.04368 0.657086
1 -8.29605 -10.1866 -1.67393
1 -8.6667 -9.54918 -1.07977
1 -8.35275 -9.03128 -1.82068
1 -7.78511 -8.74797 -2.51417
1 -7.14996 -7.99249 -2.30082
1 -8.07957 -7.66211 -2.29478
1 -8.25448 -7.4909 -1.36355
1 -7.72785 -8.39825 -1.24785
1 -8.50725 -8.50384 -0.753632
1 -7.92858 -8.00924 -0.132237
1 0.783106 -5.02664 -3.78693
1 0.472886 -4.37684 -4.49712
1 0.134779 -5.23829 -4.61254
1 0.234422 -5.62074 -5.50454
1 0.629095 -6.10022 -6.29564
1 0.0560883 -5.37163 -6.53821
1 0.827139 -4.95224 -6.12659
1 1.13026 -4.71188 -5.20218
1 1.91428 -4.66132 -4.69365
1 1.63702 -4.22862 -3.88436
1 -3.19229 -1.68533 2.54531
1 -3.59927 -2.50776 2.71855
1 -4.4351 -2.58894 2.28022
1 -4.31185 -1.66298 2.07765
1 -4.83939 -1.76204 2.88598
1 -4.88913 -1.8716 3.826
1 -4.31837 -2.56996 3.54671
1 -4.67095 -3.26201 2.9362
1 -4.79415 -3.60095 2.05436
1 -3.79354 -3.53835 2.16845
1 1.78016 5.96881 -7.95022
1 1.29018 5.16589 -8.35314
1 0.882581 6.04637 -8.49129
1 0.75224 6.29894 -7.55705
1 1.30595 5.60995 -7.13272
1 1.5354 5.41312 -6.20715
1 0.917625 5.69087 -5.57919
1 0.640445 5.75839 -4.63353
1 1.26002 5.85734 -3.91767
1 1.13143 6.8413 -4.011
1 5.89105 1.48676 3.69054
1 5.02515 1.84408 3.80132
1 5.56413 2.42708 4.39281
1 4.78047 2.5818 5.01498
1 4.61491 2.92152 4.15464
1 3.97367 2.26857 4.40551
1 3.92903 2.25669 3.44523
1 4.64111 2.66394 2.99224
1 4.18006 3.00192 2.23095
1 4.4121 2.05732 2.18037
1 -4.06264 7.36883 9.05327
1 -4.38755 6.7378 9.81337
1 -4.69988 6.12151 9.16227
1 -4.02619 6.26466 8.47467
1 -3.52895 5.46592 8.51314
1 -4.02535 4.60905 8.29314
1 -4.41948 4.25103 9.07241
1 -4.14329 5.10171 9.42613
1 -3.76078 4.51184 10.0623
1 -3.03866 4.80399 -10.5721
1 2.74145 -8.96736 7.39463
1 3.22465 -9.33639 8.16786
1 2.3938 -9.26996 8.66364
1 2.52882 -10.0145 9.34693
1 1.83525 -10.2699 8.71996
1 0.930579 -10.0724 9.04044
1 1.32802 -9.34067 9.46781
1 0.422336 -9.25507 9.35652
1 0.050634 -8.47912 8.93282
1 1.02184 -8.4163 8.86787
1 9.25757 1.78415 -2.56733
1 8.96857 2.48768 -3.10737
1 9.23375 3.44952 -3.17264
1 10.0481 3.06005 -2.99758
1 10.0212 3.93543 -3.51006
1 9.36097 4.55779 -3.82697
1 9.0154 4.6674 -4.71437
1 8.50649 5.09495 -5.33173
1 8.66107 5.90413 -4.89045
1 9.44514 5.53485 -4.41442
1 9.87227 7.26285 -0.615189
1 10.1373 8.16292 -0.829747
1 -10.623 8.23332 0.0225938
1 -10.0851 8.47671 0.800861
1 10.5566 8.205 1.49736
1 9.76468 8.58509 1.0803
1 10.0089 9.37797 1.6105
1 10.2274 10.2369 2.04201
1 -10.562 -10.2594 2.3944
1 10.0133 -9.59844 2.27187
1 6.20467 0.447036 2.13587
1 6.23193 1.18257 2.68598
1 6.55907 1.40307 1.76843
1 7.49351 1.49797 1.56445
1 7.15784 0.591834 1.43149
1 6.97004 1.04513 0.652991
1 6.51821 1.7698 0.20454
1 6.55797 1.04461 -0.373339
1 7.00074 0.572517 -1.10219
1 6.72927 1.42681 -1.4792
1 -4.94983 4.3651 -4.31672
1 -5.02721 4.03824 -3.43686
1 -5.70952 3.3455 -3.31401
1 -6.35628 2.78716 -2.89312
1 -6.78038 3.3651 -2.24978
1 -7.63985 3.6924 -2.04895
1 -8.17711 4.42868 -2.40747
1 -8.74202 4.96921 -1.8767
1 -9.24883 5.82708 -2.08873
1 -8.54664 6.64249 -2.20231
1 -3.42903 -5.62917 -2.19071
1 -2.7533 -5.43177 -1.53446
1 -3.06567 -6.14581 -0.936881
1 -2.24017 -5.89656 -0.522913
1 -1.94362 -6.73037 -0.8773
1 -1.63416 -6.49316 0.0505722
1 -1.69095 -7.32135 0.518526
1 -2.17003 -7.60806 -0.365575
1 -3.16402 -7.40813 -0.368276
1 -2.82156 -7.10307 -1.20337
1 -8.19391 3.36719 -0.339162
1 -9.06198 3.63173 -0.151557
1 -8.77524 4.46922 -0.600352
1 -7.88226 4.65454 -0.389518
1 -8.01858 4.40273 0.499749
1 -7.32441 3.77186 0.640114
1 -6.9578 4.57896 0.158286
1 -7.32019 5.44564 -0.0939405
1 -8.19357 5.41469 0.235597
1 -8.92929 4.99036 0.557552
1 8.86552 9.49813 5.04651
1 8.66716 10.0141 5.80776
1 8.75412 9.77054 6.72817
1 9.66427 10.0743 6.98203
1 9.37656 -10.2656 6.95253
1 9.69405 -10.4673 6.0462
1 9.97651 -9.795 5.48382
1 9.30778 -10.3909 5.1321
1 8.55714 -10.0995 4.64004
1 8.73915 10.3105 4.48833
1 5.56085 -5.2435 8.64641
1 5.6895 -5.26412 9.58477
1 4.7869 -5.17524 9.36874
1 3.93302 -5.59961 9.43657
1 4.61934 -6.25024 9.67546
1 5.31376 -6.08572 10.2517
1 4.73717 -5.39409 10.4226
1 5.05725 -5.70731 -10.0171
1 5.91835 -6.0241 -10.2131
1 6.32656 -5.54358 10.2789
1 -7.11836 5.93197 -6.77514
1 -7.43545 6.81703 -6.61018
1 -7.03869 6.40698 -5.81962
1 -6.36966 6.61107 -5.19187
1 -6.53312 5.92623 -4.48405
1 -6.89065 5.10427 -4.36457
1 -7.19311 4.45926 -5.0754
1 -7.01297 5.41741 -5.36692
1 -7.76969 5.14478 -5.91632
1 -8.17145 4.92036 -6.74008
1 7.7548 -2.37099 7.99826
1 7.92318 -3.26565 8.12398
1 8.47747 -3.32144 8.89355
1 9.48507 -3.39369 8.79505
1 10.067 -2.78517 9.21186
1 10.1189 -2.35026 8.35111
1 10.5137 -3.26358 8.36603
1 -10.2226 -3.88935 7.87035
1 10.4684 -3.85497 7.09403
1 9.7321 -4.39541 6.72201
1 -0.212356 8.11638 -4.1638
1 0.312215 8.56023 -4.87603
1 -0.271033 8.23332 -5.53172
1 0.0202042 8.70895 -6.32402
1 0.0226992 9.62539 -6.09575
1 -0.129422 10.4398 -6.54182
1 0.619252 -10.3647 -6.56074
1 1.40516 -10.0155 -6.90832
1 1.14668 -10.4705 -7.7298
1 0.537516 -10.4311 -8.47713
1 4.7714 10.6021 -7.09102
1 4.73392 -9.763 -6.78758
1 5.49305 -9.60582 -7.26756
1 6.22458 -8.88541 -7.16503
1 6.99791 -8.33501 -7.31105
1 7.55354 -8.85699 -7.79823
1 8.16843 -8.0876 -7.66248
1 8.86035 -7.81325 -7.01805
1 9.2495 -7.76494 -7.85355
1 9.23249 -6.84099 -7.64183
1 4.94055 6.00678 -7.7932
1 4.16855 6.10761 -8.32432
1 4.88124 6.74811 -8.52757
1 4.26995 6.77351 -9.23398
1 3.80348 7.12925 -8.43034
1 3.1067 7.8027 -8.63004
1 2.18868 7.67268 -8.76853
1 2.50043 7.07524 -8.03955
1 3.2342 6.71738 -7.46577
1 4.19893 6.72612 -7.48487
1 10.4269 -2.02639 2.77967
1 9.73181 -2.22222 3.39809
1 8.99527 -2.47416 3.87957
1 8.83237 -1.5313 3.8408
1 8.79146 -1.80119 4.71706
1 9.64544 -1.44195 4.86281
1 10.3116 -0.748801 4.55699
1 9.90644 -1.22421 3.79876
1 10.5103 -0.799482 3.23042
1 10.4778 0.17514 3.48819
1 -0.83268 -10.0898 2.88834
1 -1.19156 -10.3255 2.02574
1 -0.599294 10.2778 2.38724
1 -1.11131 9.53202 2.10201
1 -0.393641 8.94689 2.40426
1 -0.153818 8.82584 3.28711
1 0.227721 8.05672 3.64752
1 -0.498655 7.60923 4.11428
1 -1.36496 7.24387 4.27941
1 -1.89003 7.93241 4.57643
1 2.42265 -2.35673 -5.50786
1 3.18154 -2.89911 -5.17131
1 2.3048 -3.21548 -4.88393
1 2.64554 -3.96247 -5.3114
1 3.36039 -4.57374 -5.56759
1 2.52446 -5.0409 -5.76968
1 2.47178 -6.00266 -5.97403
1 2.28451 -5.83869 -4.99767
1 2.10269 -5.60169 -4.06054
1 1.61681 -6.16364 -3.4688
1 -8.12583 10.0777 9.60578
1 -7.76645 -10.4096 9.99118
1 -7.42517 10.4368 -10.5154
1 -8.29502 9.85788 -10.2849
1 -8.8759 10.41 10.4459
1 -9.43124 9.9308 -10.2478
1 -10.3899 9.90024 -10.1532
1 -10.4199 9.02703 -10.5747
1 -10.4598 8.55319 9.84765
1 10.5055 8.10079 10.5968
1 5.3566 -5.84384 -7.01516
1 5.05667 -5.91252 -6.07867
1 4.70572 -6.48169 -5.41346
1 5.39966 -6.12893 -4.88136
1 4.60352 -6.0277 -4.34227
1 4.54235 -5.44268 -3.60432
1 4.91818 -4.59706 -3.70904
1 5.87087 -4.79507 -3.60503
1 6.03853 -4.01639 -4.1306
1 5.96304 -3.42249 -3.38641
1 9.17296 8.45729 -7.82011
1 8.50924 7.81919 -7.69973
1 8.0975 8.2079 -8.4777
1 7.93098 8.7129 -7.67386
1 7.06913 8.41325 -7.94658
1 7.28622 7.5298 -7.61414
1 7.14854 6.95581 -8.39008
1 6.53065 6.9146 -9.23678
1 6.26038 6.34356 -8.57926
1 6.21114 7.34278 -8.17912
1 -3.88273 7.82824 -7.76011
1 -3.08872 7.67493 -7.24394
1 -3.37808 6.76978 -7.43589
1 -4.12542 6.17711 -7.47475
1 -4.24876 7.07951 -7.16806
1 -4.00973 6.68539 -6.30058
1 -3.72173 5.88322 -5.86607
1 -4.00008 5.54926 -6.76039
1 -4.88794 5.60539 -7.04328
1 -5.23392 4.83286 -6.66269
1 0.536004 6.25476 -2.05265
1 0.569218 6.225 -3.07241
1 -0.0558394 5.5033 -2.6939
1 0.487382 4.73008 -2.88847
1 0.234284 4.21631 -3.62407
1 0.0464276 4.61658 -4.43775
1 0.276 4.00034 -5.08129
1 0.208278 4.91296 -5.49813
1 -0.399868 4.54388 -6.15227
1 -1.00233 4.96982 -5.52061
1 -9.18992 8.60886 1.6899
1 -9.98954 8.77359 2.19716
1 -10.2843 9.52136 1.6875
1 -9.49879 9.44311 1.20371
1 -8.89644 9.30825 0.462547
1 -8.73504 8.42849 0.139909
1 -8.23879 8.33362 1.03105
1 -7.83241 7.91759 0.296047
1 -7.43012 7.46789 -0.423165
1 -7.14387 6.97915 0.297194
1 0.399617 -1.15707 4.75396
1 1.32392 -1.08814 4.51368
1 1.9114 -0.289374 4.50834
1 2.46783 -0.424645 5.31807
1 3.28773 0.0222544 5.24993
1 3.34736 -0.932777 4.97252
1 3.29442 -1.85389 4.88024
1 3.06532 -2.09706 4.0073
1 2.15548 -2.23732 3.69996
1 2.37134 -1.35883 4.07462
1 -8.6241 -3.55159 0.416497
1 -7.84407 -4.08911 0.304211
1 -6.97878 -4.57837 0.483418
1 -6.64199 -5.528 0.396715
1 -6.42392 -6.40466 0.518298
1 -6.808 -6.2079 -0.345697
1 -6.91014 -7.18917 -0.23601
1 -7.01674 -7.56436 -1.08158
1 -6.18897 -7.16448 -0.934406
1 -5.6152 -6.4717 -0.572819
1 -9.74966 1.06859 -0.0275173
1 -9.72769 0.284972 0.541146
1 -9.51637 -0.647726 0.728071
1 -8.79035 -1.11109 0.478664
1 -8.50878 -0.300729 0.960455
1 -8.53607 0.0280047 0.0076499
1 -8.77814 0.9319 0.309595
1 -7.99795 0.550039 0.851426
1 -7.90547 1.12892 1.56614
1 -7.46131 1.81053 1.02785
1 -7.73787 1.82924 5.618
1 -6.83899 1.48793 5.74379
1 -6.38183 0.658443 5.80017
1 -5.51536 0.41197 5.89339
1 -5.64534 -0.595032 6.07966
1 -5.68833 -0.0686101 6.83492
1 -6.3316 0.357414 7.50267
1 -7.12146 0.971331 7.72818
1 -6.85082 1.5045 8.50385
1 -6.43262 1.82953 7.69867
1 6.05876 2.40913 9.57056
1 5.18124 2.69571 9.8455
1 4.537 1.84389 9.73694
1 4.13609 2.42497 10.4135
1 4.88682 1.99377 -10.3461
1 4.9793 1.05286 -10.1708
1 5.54729 0.948403 -9.41596
1 6.23141 0.759054 -10.0328
1 6.86002 0.0209537 -9.9068
1 7.73708 0.556791 -9.83888
1 2.98456 -4.8705 8.98459
1 3.69189 -4.47779 9.45397
1 4.21535 -4.16307 8.73259
1 4.25497 -5.11802 8.58337
1 3.65776 -4.73233 7.97612
1 2.72284 -4.91024 7.98019
1 1.9928 -4.94155 8.56083
1 1.51666 -5.35833 9.2897
1 0.983481 -4.60758 9.40896
1 0.219934 -4.09973 9.12068
1 0.727189 -4.47069 -0.994726
1 1.12183 -3.79582 -0.479854
1 1.06007 -3.54481 -1.37637
1 1.21673 -2.56955 -1.46759
1 2.14296 -2.41253 -1.35828
1 2.05246 -3.03612 -0.663455
1 2.33293 -3.52025 -1.44519
1 2.98414 -2.94304 -1.0272
1 2.87598 -3.5111 -0.283487
1 3.60301 -2.86236 -0.0835561
1 9.58966 -2.71917 4.93714
1 10.3436 -3.22925 4.95203
1 10.3444 -2.96171 4.00122
1 -10.0272 -2.5549 4.05666
1 -10.3405 -1.69255 3.98954
1 10.3776 -2.10698 4.63805
1 -10.2507 -2.52468 5.16919
1 -10.4201 -1.6371 5.4443
1 -10.0988 -2.14661 6.2276
1 -9.82868 -2.95644 6.64785
1 8.66208 -2.99257 -5.93775
1 8.18303 -3.76573 -6.49237
1 9.00631 -3.36495 -6.77489
1 9.83993 -2.87906 -6.65836
1 10.6325 -3.31735 -6.26266
1 10.2546 -2.80247 -5.57495
1 10.4998 -2.09121 -4.89252
1 -10.5663 -2.93023 -4.48509
1 -9.83148 -2.69551 -5.02377
1 -10.0517 -2.24527 -5.85467
1 10.2332 6.79217 3.77318
1 -10.1402 6.72126 3.76138
1 -9.93812 6.23038 4.58651
1 -10.4971 6.86637 5.08615
1 10.2327 6.16962 4.68001
1 10.2093 6.22526 5.65926
1 10.3988 5.38091 5.28717
1 9.47688 5.23887 5.63407
1 9.21094 5.47177 6.54427
1 9.52718 5.2631 7.41286
1 -5.66027 -1.21057 -3.80801
1 -5.11723 -1.65259 -3.0863
1 -4.83425 -0.734477 -3.22412
1 -4.77936 -0.749011 -2.31388
1 -5.65846 -0.461687 -2.20278
1 -6.15499 -0.751 -1.34379
1 -5.77632 -1.43163 -1.92637
1 -6.63856 -1.2967 -2.303
1 -6.69864 -1.03693 -3.2624
1 -6.80512 -0.327985 -2.54045
1 -10.3052 0.591815 -9.95773
1 -9.48564 0.411114 -9.5034
1 -9.26876 0.568905 -10.4378
1 -9.53245 -0.367918 -10.376
1 -10.0307 0.08303 10.211
1 10.4625 -0.270152 10.6058
1 10.4717 -0.518841 -9.72226
1 -9.98951 -0.525371 -9.18053
1 -10.2977 0.128915 -8.58875
1 10.3042 -0.645822 -8.6542
1 -5.24756 -7.5411 2.14096
1 -4.28866 -7.77107 2.16543
1 -4.05474 -7.16554 2.8604
1 -4.64916 -6.57977 2.47775
1 -5.39999 -6.37839 1.96516
1 -6.15172 -6.86231 1.75543
1 -6.06123 -6.77047 2.76793
1 -5.82067 -5.89776 3.00401
1 -4.99944 -6.22961 3.41401
1 -4.89048 -6.19903 4.35984
1 0.402624 -7.23488 4.0839
1 0.645022 -7.05089 5.04338
1 1.58171 -7.18096 5.17118
1 1.58802 -6.22766 5.44758
1 1.20873 -6.58465 6.2513
1 1.73573 -7.40237 6.22891
1 1.27817 -7.48424 7.10648
1 0.45784 -7.92365 6.95821
1 0.707266 -7.58819 6.08964
1 0.04727 -6.97748 5.85988
1 0.969473 1.94974 5.8607
1 0.243764 2.60271 5.61583
1 -0.481259 2.81893 4.97265
1 -0.913356 3.7385 4.70093
1 -0.483751 4.5393 5.03947
1 0.0622393 5.01007 4.39588
1 0.218263 4.09452 4.4854
1 0.95755 4.53328 3.94561
1 0.282816 4.17943 3.37805
1 -0.617608 4.32994 3.7728
1 7.65298 8.24921 7.4862
1 8.27243 8.96986 7.27896
1 9.23931 8.96531 7.27102
1 9.22452 8.3345 8.05489
1 8.43839 8.39249 8.5941
1 8.43077 9.36959 8.58956
1 9.07685 9.70197 7.92829
1 9.25596 -10.6082 8.01715
1 9.22785 10.5758 9.01075
1 9.66914 -10.4825 9.8007
1 -5.8599 6.61373 -0.216496
1 -5.401 7.00114 0.489306
1 -5.23915 7.44074 -0.383937
1 -4.7014 8.27675 -0.452978
1 -3.94976 8.11259 -1.05079
1 -3.72054 7.19436 -1.25816
1 -4.01553 6.41461 -0.691312
1 -4.13916 6.37982 -1.64206
1 -4.688 7.14562 -1.50345
1 -5.20233 7.94895 -1.29739
1 -0.616259 -0.833596 -2.73098
1 -0.837482 -1.21559 -1.87433
1 -1.75522 -1.1499 -2.23421
1 -2.59124 -0.978385 -1.77059
1 -3.37299 -0.376727 -1.67782
1 -3.96079 0.286466 -1.99639
1 -4.90879 0.306782 -1.98003
1 -5.15718 0.566745 -2.85711
1 -6.1076 0.612244 -2.5893
1 -5.99533 0.376498 -1.6833
1 -4.45082 -5.79595 7.46113
1 -4.39556 -5.19418 8.18901
1 -3.50402 -5.60339 8.02879
1 -2.92832 -5.28138 8.75008
1 -2.36222 -6.10794 8.60629
1 -2.1294 -5.70881 7.7618
1 -1.49897 -5.60019 8.56403
1 -1.28019 -6.56023 8.827
1 -0.545022 -5.92045 8.89984
1 -0.76928 -6.05974 7.95785
1 8.1623 -4.39142 -8.18429
1 7.77788 -3.99557 -7.44727
1 7.83661 -4.91718 -7.24681
1 8.79835 -4.57019 -7.20927
1 8.99654 -5.30191 -7.96482
1 9.29706 -6.1287 -8.35792
1 9.90117 -5.41661 -8.65299
1 9.33531 -4.7297 -8.95681
1 8.85866 -4.18805 -9.60749
1 9.11252 -5.08803 -9.92333
1 0.969462 -3.68973 1.18749
1 1.5789 -3.83002 0.476542
1 1.09101 -3.03091 0.380169
1 0.537193 -2.76571 -0.361991
1 0.0241988 -2.95805 0.468284
1 0.128162 -3.86906 0.658419
1 0.765379 -4.4857 0.423484
1 0.188399 -4.98084 1.07209
1 -0.450168 -5.58905 1.60877
1 -1.31035 -5.40002 1.41361
1 -4.19758 -4.57074 -6.23864
1 -3.99099 -3.65643 -6.17577
1 -3.06505 -3.32313 -6.29224
1 -2.91315 -4.27681 -6.19451
1 -2.99186 -4.10308 -5.24145
1 -2.12786 -4.53718 -5.28884
1 -2.39398 -4.49929 -4.38594
1 -1.50448 -4.12522 -4.3072
1 -0.579136 -4.41987 -4.33938
1 -0.360649 -4.04149 -3.46343
1 -1.17733 5.44159 3.83476
1 -1.30036 5.37761 4.80061
1 -1.33435 4.99621 5.65375
1 -1.12663 5.98144 5.72448
1 -1.94842 5.94907 6.15743
1 -2.75411 6.10322 5.62221
1 -3.49182 5.73239 6.12232
1 -3.89057 5.37083 5.30061
1 -3.59521 5.75044 4.44374
1 -3.46378 6.38862 3.72164
1 8.71328 -8.59208 8.86188
1 8.24741 -8.10338 9.45746
1 9.06451 -7.64434 9.1888
1 9.31914 -8.33024 9.92364
1 10.2624 -8.38524 10.1729
1 9.99425 -7.47451 10.2807
1 9.83507 -7.41673 -10.028
1 9.47298 -7.03343 -9.26108
1 8.80612 -7.49894 -8.79383
1 8.42335 -7.07946 -9.53306
1 9.04413 6.54539 -3.77925
1 9.97565 6.04339 -3.7226
1 10.2651 5.08804 -3.51916
1 10.2956 5.70522 -2.72684
1 -10.1468 5.13168 -2.70544
1 -10.2692 5.59668 -1.8716
1 -10.3346 4.75846 -1.45355
1 -9.64681 4.9709 -0.899222
1 -9.40068 4.22991 -1.54501
1 -9.46447 3.38688 -1.95277
1 3.7227 5.12038 0.727111
1 2.95828 4.58785 0.996919
1 2.48796 3.84002 1.40433
1 1.87712 3.14697 1.3309
1 2.58345 2.62833 0.923108
1 2.87641 2.88798 1.7728
1 2.29242 3.02431 2.53141
1 2.96839 2.4286 2.74525
1 2.87798 1.57324 3.13784
1 3.79174 1.21002 2.90933
1 3.15688 -8.58304 3.17504
1 3.32367 -7.62681 2.86009
1 4.08061 -7.99756 3.28776
1 3.48513 -7.81127 3.97647
1 2.94328 -8.11128 4.7437
1 2.69795 -7.49007 5.47591
1 3.0699 -6.53227 5.59435
1 3.52309 -5.70671 5.7507
1 3.11664 -4.8355 5.61734
1 2.96994 -4.02409 6.04899
1 -6.39289 -8.50119 -6.41875
1 -5.5206 -8.32407 -6.03386
1 -4.58445 -8.51501 -5.89262
1 -4.66566 -7.94575 -6.62255
1 -4.24725 -7.25906 -7.20624
1 -3.60318 -7.72196 -6.61591
1 -3.52728 -8.07251 -5.78024
1 -3.74642 -8.78597 -6.41474
1 -2.83032 -8.41806 -6.47801
1 -2.36701 -8.93651 -7.10063
1 -9.58702 -6.94127 5.34326
1 -9.50638 -7.76373 4.85842
1 -9.35829 -7.80372 3.91742
1 -10.2791 -7.71726 4.10304
1 -10.0829 -7.20479 3.26652
1 -9.71637 -6.56677 3.84916
1 -10.2991 -6.59995 4.57064
1 -10.5757 -6.03892 5.28059
1 -9.85286 -5.47031 5.54763
1 -10.3575 -4.83111 6.06896
1 -2.15459 7.33164 9.1614
1 -2.27464 6.87012 8.33424
1 -3.01839 7.54554 8.40738
1 -2.87569 7.86134 7.48278
1 -2.3094 8.54815 7.02065
1 -3.27227 8.69074 6.83637
1 -4.23333 8.60673 6.67998
1 -4.09031 7.98951 7.38287
1 -3.94103 7.99011 8.32104
1 -3.2732 8.61086 8.07658
1 -6.90429 5.27535 4.62615
1 -7.32177 4.46233 5.11101
1 -6.42344 4.63171 5.44937
1 -5.78924 5.17545 5.94637
1 -5.46873 5.24146 6.88268
1 -4.75865 5.61993 7.47088
1 -4.74548 5.31372 8.37225
1 -5.36818 4.72342 8.83491
1 -5.97037 5.4472 9.07369
1 -5.53248 5.09555 9.79279
1 2.71285 7.35087 3.57346
1 3.4707 6.99061 3.04115
1 3.99063 7.75289 3.21209
1 3.76426 7.26088 3.97801
1 3.98106 6.32066 4.27256
1 4.59843 5.59187 4.01659
1 3.71787 5.32966 4.12435
1 3.49414 4.47469 3.84205
1 2.53197 4.6338 3.47879
1 1.90905 5.38386 3.68566
1 -0.437546 3.6004 2.75588
1 -0.414416 3.47036 1.79169
1 -0.847033 4.20142 1.1969
1 -1.10363 3.8197 0.311329
1 -0.279977 4.32982 0.104308
1 0.618329 4.31456 -0.352484
1 0.463496 5.18331 -0.0895515
1 -0.274476 5.14096 -0.717864
1 0.279201 5.74883 -1.16263
1 0.696827 6.18842 -0.459242
1 7.32952 0.39432 7.65156
1 7.07127 -0.466658 7.99007
1 6.97232 -1.19368 7.3498
1 7.7183 -0.650772 7.20997
1 6.83202 -0.304035 7.01777
1 6.20398 0.366542 6.62114
1 6.18429 0.0205464 5.74425
1 6.3339 -0.875231 5.50054
1 6.51198 -1.24557 6.3202
1 5.73233 -0.933338 6.7294
1 9.20183 5.21601 -8.84745
1 9.57008 4.89557 -9.66318
1 9.74651 5.7851 -10.0297
1 8.85319 5.78864 -9.66575
1 8.08284 6.03245 -10.1636
1 8.75466 5.89012 10.4706
1 9.04977 5.07121 -10.5376
1 8.14664 4.75298 10.4016
1 7.44189 5.06968 -10.2896
1 6.72227 4.73533 10.5262
1 2.82796 0.283445 9.79729
1 2.62088 -0.46677 10.3545
1 2.05806 -0.691112 -10.1971
1 2.43961 -1.01025 -9.31716
1 2.88411 -0.106233 -9.2367
1 2.34353 -0.0992273 -8.43452
1 2.71578 -0.68078 -7.78741
1 2.43808 0.0141879 -7.20574
1 1.48901 -0.102634 -7.46112
1 1.71178 0.687423 -6.96626
1 7.91743 -1.87591 -9.76726
1 8.22975 -2.09822 -10.5993
1 8.61597 -2.27756 9.85325
1 8.15387 -2.04753 9.06671
1 7.42311 -1.54674 9.51451
1 7.31299 -1.27389 8.59859
1 7.53276 -0.551668 9.24234
1 6.58484 -0.647266 9.11974
1 6.54504 -0.0424613 9.98835
1 6.74463 -0.980542 10.2365
1 -1.20932 7.6579 -8.58674
1 -1.34603 7.54242 -9.4901
1 -1.40355 8.03826 -10.2812
1 -0.597995 7.92812 10.4613
1 -0.145932 7.8355 -9.9666
1 0.412442 8.44416 -9.44609
1 1.17662 7.8528 -9.34176
1 1.14218 7.81718 -10.3106
1 0.541121 8.34209 10.4179
1 0.753325 7.43235 9.98265
1 -0.430419 -2.3868 -4.05534
1 0.132666 -2.6401 -3.31973
1 0.64312 -3.38135 -2.98921
1 0.579084 -3.37895 -3.95595
1 1.14137 -2.6331 -4.1927
1 0.880713 -1.70347 -4.02793
1 0.660814 -2.0198 -4.9068
1 0.353638 -2.99174 -4.85669
1 0.0152098 -2.45108 -5.57242
1 -0.0938796 -2.79867 -6.46553
1 0.434999 5.4592 3.51547
1 0.8947 5.02137 2.75814
1 1.26832 5.92865 2.69467
1 0.252436 5.89783 2.64578
1 -0.599497 6.06457 2.20533
1 -1.27493 5.76218 2.76103
1 -1.5449 6.5377 2.18886
1 -1.71968 7.43352 1.93826
1 -1.9839 8.34728 2.2887
1 -1.97469 7.76575 3.08923
1 -4.25602 -1.00164 7.67357
1 -3.51319 -1.32124 8.22887
1 -3.51017 -2.24482 8.49907
1 -3.58664 -2.52889 7.51074
1 -4.34971 -2.49731 7.00171
1 -4.29914 -3.3521 6.61281
1 -3.73381 -3.41365 5.87827
1 -4.60469 -3.22714 5.4868
1 -4.23151 -2.41821 5.91334
1 -3.35352 -2.56215 6.2318
1 7.16219 -0.447789 -7.91103
1 6.40564 -0.799354 -7.44596
1 5.97892 0.0682008 -7.12705
1 6.11736 0.971573 -7.48844
1 5.8404 1.80125 -7.21946
1 6.08349 2.00723 -6.31791
1 5.39797 2.17073 -5.75174
1 4.61187 2.56563 -5.99288
1 4.62277 3.52357 -6.13134
1 4.58757 4.03955 -6.96904
1 9.02307 8.55966 3.43568
1 8.71836 7.74448 3.07839
1 8.39962 7.25208 2.29541
1 8.04394 6.59321 2.8936
1 7.31316 6.41787 2.30553
1 6.39516 6.34081 2.69038
1 6.78965 7.05267 3.31508
1 7.66813 7.19905 3.6776
1 8.51145 6.79242 3.78011
1 8.60885 7.52723 4.29413
1 -10.3839 -7.77912 -10.5757
1 -10.3377 -8.32134 -9.80896
1 -9.4453 -8.60243 -9.54736
1 -9.32155 -9.0197 -8.74953
1 -8.52216 -8.50485 -8.88981
1 -7.602 -8.13472 -8.91524
1 -7.37872 -7.28381 -9.35288
1 -7.73978 -6.51656 -9.74257
1 -7.69462 -6.14006 -10.6097
1 -7.06848 -6.80763 10.3618
1 -5.22913 -5.82297 -8.82702
1 -6.00341 -6.13067 -9.33176
1 -6.16845 -6.01426 -8.35813
1 -6.23907 -6.90368 -8.06731
1 -6.63561 -7.36477 -8.76578
1 -7.32372 -7.25169 -8.07598
1 -6.96464 -6.54481 -7.56969
1 -7.52728 -7.22733 -7.09611
1 -7.47051 -8.14991 -6.73081
1 -7.61327 -7.60405 -5.92763
1 -2.77958 1.01571 -7.54864
1 -2.09475 0.43124 -7.22327
1 -1.27854 -0.10661 -7.01197
1 -0.911207 0.812313 -7.33021
1 -0.355245 0.00515741 -7.49267
1 -1.09327 0.000664511 -8.14226
1 -0.57242 0.187857 -8.93367
1 -0.793146 1.13788 -8.75603
1 -1.50946 0.731578 -9.22656
1 -1.9174 0.821637 -10.104
1 9.7005 -2.34153 -9.92296
1 10.4178 -2.94166 -9.84984
1 9.5053 -3.29538 -9.71699
1 9.91842 -4.17571 -9.6562
1 9.33914 -4.19851 -10.4512
1 8.51468 -3.78063 -10.5719
1 8.34742 -2.91732 -10.1175
1 7.60706 -2.9653 10.482
1 7.12385 -2.12953 10.345
1 6.36288 -1.90227 9.83368
1 -8.72977 1.35866 8.52777
1 -7.93049 1.7333 8.15449
1 -8.516 2.49405 8.04968
1 -8.78043 2.50118 9.00359
1 -8.31495 3.08099 9.67416
1 -7.73673 2.58496 8.99343
1 -7.07711 2.60339 8.278
1 -7.33042 2.21839 7.38383
1 -6.91995 1.53247 6.81955
1 -7.22443 0.664954 6.51126
1 4.68635 5.64571 2.0216
1 5.57071 5.79468 1.9883
1 5.60268 4.97998 2.52869
1 5.79975 4.61706 1.70282
1 5.90387 3.88069 1.10337
1 6.86653 3.83211 1.14473
1 7.79927 3.53802 1.21422
1 8.7425 3.44232 1.29645
1 9.46415 3.16008 1.8589
1 9.9775 3.01345 2.62808
1 7.48238 7.83555 4.45623
1 7.91114 8.53218 3.98632
1 8.09788 9.02049 3.13267
1 7.67257 9.26847 2.30966
1 8.52984 9.02803 2.0174
1 8.17305 8.3409 1.47883
1 8.44583 8.88544 0.751821
1 9.0005 8.11751 0.704451
1 8.32942 7.47604 1.11701
1 9.18174 7.39421 1.56392
1 4.6417 6.72211 10.1417
1 3.92427 6.1858 9.7105
1 4.07223 5.67928 8.90163
1 3.29119 5.07858 8.82106
1 3.12113 5.98269 8.86467
1 3.32497 6.85558 9.09381
1 2.33081 6.84301 9.23744
1 1.58048 6.90758 8.66917
1 1.45337 7.52461 7.95442
1 1.89615 8.01768 7.33479
1 -2.144 -3.54989 -5.64266
1 -1.67187 -3.3176 -4.8684
1 -0.875561 -2.83696 -4.82951
1 -1.27484 -2.51844 -5.67376
1 -1.86998 -2.32636 -6.41937
1 -1.85594 -3.15573 -7.0014
1 -2.62724 -2.59564 -7.19026
1 -2.83265 -2.03547 -6.48811
1 -2.80987 -1.07817 -6.35623
1 -2.5167 -1.00368 -7.2745
1 10.5529 1.07159 -4.63523
1 -10.1693 0.918343 -3.8329
1 -10.146 1.86886 -3.91576
1 10.2414 1.97221 -4.36933
1 -10.5861 1.87972 -5.15594
1 -10.3457 2.69148 -5.5579
1 -10.5914 2.91263 -4.63731
1 9.97221 2.96358 -3.98867
1 9.48692 3.30693 -4.74573
1 9.46899 2.41446 -5.01056
1 -9.98367 0.00717481 7.98378
1 -9.5699 0.825188 8.21731
1 -10.5116 0.846485 8.43608
1 9.90004 0.84443 8.8812
1 9.62029 1.65455 9.326
1 9.20093 1.54783 8.4873
1 8.96317 1.64942 7.58186
1 8.84352 2.32332 6.95199
1 8.6591 2.28112 5.96718
1 7.84358 2.36868 6.45849
1 -5.63642 10.0315 -2.84096
1 -5.47807 9.77712 -3.85092
1 -5.69011 8.92139 -3.9152
1 -5.51105 8.06379 -3.64515
1 -5.94307 7.96413 -2.81548
1 -5.01982 7.74358 -2.59498
1 -4.58693 8.5616 -2.28782
1 -5.34301 9.10447 -2.33644
1 -5.81621 9.32022 -1.47366
1 -5.28916 10.0311 -1.77326
1 4.17466 -9.41877 -9.00661
1 4.64095 -9.7114 -9.80027
1 3.81189 -10.2509 -9.61796
1 3.92359 -10.6062 -10.4844
1 2.93449 10.4827 -10.3245
1 2.20038 10.4427 10.342
1 1.69263 9.68245 10.5704
1 0.881606 9.23668 10.4531
1 -0.0172571 9.15277 -10.415
1 -0.880562 9.17247 -10.0543
1 0.759135 -0.0513346 2.53901
1 0.913158 -0.969737 2.60714
1 0.0183263 -1.3394 2.56835
1 -0.876897 -1.768 2.75233
1 -0.532917 -2.60972 3.17074
1 -0.0573235 -3.29675 3.64071
1 -0.281215 -2.66974 4.28538
1 -0.251625 -2.31592 5.1592
1 0.618329 -2.37433 4.81537
1 1.58763 -2.24978 4.67256
1 3.27302 -5.80951 -8.8967
1 2.8824 -5.54251 -8.03362
1 2.76544 -4.7203 -8.56712
1 2.06512 -5.4114 -8.63845
1 2.19769 -5.2095 -9.51882
1 1.64569 -6.01336 -9.50123
1 2.61013 -6.13641 -9.67678
1 2.91955 -6.97424 -10.0117
1 3.61955 -7.51815 -10.514
1 4.45086 -8.02929 10.5428
1 -5.20539 -3.28878 -0.799903
1 -4.5241 -2.99458 -0.132184
1 -3.78608 -3.53802 -0.374455
1 -3.65279 -3.76622 -1.24703
1 -3.12799 -2.95288 -1.33932
1 -2.44605 -3.6943 -1.43064
1 -2.88461 -4.13564 -2.18407
1 -3.61021 -4.69174 -1.8028
1 -3.87767 -4.81149 -2.67725
1 -4.33521 -3.952 -2.55119
1 -10.0746 -0.435922 4.02968
1 -9.4506 -1.00947 3.47033
1 -9.12983 -1.63973 4.03804
1 -8.73903 -2.30813 4.66348
1 -8.6805 -1.36674 4.94826
1 -9.31883 -1.72962 5.637
1 -9.00081 -2.31539 6.26186
1 -8.29333 -2.46489 5.65597
1 -7.62762 -2.28603 4.97588
1 -6.99104 -2.07476 4.35574
1 -9.31985 -7.23926 -5.29791
1 -9.40771 -6.37559 -5.63206
1 -10.413 -6.53863 -5.77898
1 -10.0154 -5.87029 -6.40022
1 -10.1039 -6.0538 -7.35995
1 -10.1494 -6.99468 -7.63023
1 -9.55048 -6.81913 -8.281
1 -9.28078 -5.85529 -8.12048
1 -8.65656 -5.35387 -8.53527
1 -8.20856 -5.76791 -9.2812
1 -7.82744 -2.53544 1.83784
1 -8.51712 -2.0978 2.30354
1 -8.50504 -1.89236 3.27185
1 -8.47024 -2.86877 3.50045
1 -7.61277 -2.47078 3.37041
1 -7.13767 -2.20637 2.55214
1 -6.42646 -2.28168 1.93346
1 -5.56672 -2.66477 2.14278
1 -5.39151 -1.80245 1.87177
1 -5.01539 -2.43288 1.21042
1 -7.27396 -1.01211 -1.48672
1 -6.7237 -1.73158 -1.29543
1 -7.25347 -1.68455 -0.477068
1 -7.92529 -1.02219 -0.202758
1 -7.30096 -0.4669 0.276412
1 -7.25687 -0.232518 -0.701002
1 -7.96193 -0.063567 -1.41055
1 -8.31722 -0.885744 -1.51722
1 -8.85601 -0.756906 -0.681621
1 -9.47515 -0.635753 -1.35803
1 -3.06008 3.92319 1.66993
1 -2.71408 3.08553 1.96368
1 -3.53041 2.54244 2.07568
1 -2.94728 2.5074 2.92318
1 -2.67714 1.57344 2.73318
1 -3.13739 1.32648 3.52626
1 -2.59756 1.87847 4.10084
1 -1.84118 1.66972 3.51854
1 -2.12419 0.76539 3.76537
1 -2.88542 0.178321 3.56042
1 -8.48203 -1.76963 7.0849
1 -8.33302 -0.87126 7.34124
1 -9.17132 -0.550609 7.08951
1 -9.27499 0.362603 6.97009
1 -8.80989 1.09902 7.34833
1 -8.38029 1.09446 6.51786
1 -9.23496 1.46506 6.13633
1 -9.48192 0.664024 5.80011
1 -9.55108 -0.211121 6.19368
1 -10.1195 -0.570978 5.53751
1 -2.50113 5.57574 9.4117
1 -2.96492 6.39075 9.16921
1 -2.92546 7.1021 9.88138
1 -2.82945 6.4268 10.5427
1 -3.17166 7.12222 -10.1514
1 -3.47305 6.55501 -9.41991
1 -3.5524 5.63058 -9.54439
1 -3.80288 5.84565 -8.57827
1 -3.18301 5.85551 -7.86258
1 -2.76463 5.627 -6.93941
1 9.34939 8.54889 9.23487
1 8.96646 7.6979 9.21844
1 9.20093 6.77047 9.44073
1 10.0645 6.66316 9.8176
1 -10.3224 6.38778 9.54933
1 -9.46405 6.42834 9.18312
1 -9.68874 7.35788 9.15732
1 -8.99163 7.45929 8.47418
1 -8.76618 7.91135 7.66566
1 -8.42332 8.77 7.67194
1 4.90801 10.5582 -9.74252
1 5.28505 -10.4744 -8.88059
1 4.94407 -9.86893 -8.09193
1 5.8816 -9.76212 -8.24587
1 6.13815 -9.84818 -9.21277
1 6.92484 -9.63656 -9.63252
1 7.14401 -9.48478 -8.72337
1 6.48186 -8.94735 -8.32187
1 6.22561 -8.03268 -8.58582
1 6.42303 -7.5813 -9.40626
1 -9.3437 -8.48619 1.23963
1 -9.16861 -8.8973 0.441695
1 -8.22889 -9.03071 0.275639
1 -8.38732 -8.59524 1.10583
1 -8.64112 -9.47625 1.35887
1 -9.31858 -9.85951 0.856959
1 -10.1319 -9.56772 1.38416
1 -10.1373 -9.12831 2.23387
1 -9.21853 -8.81131 2.19835
1 -9.23726 -9.7694 2.25279
1 -10.1851 1.59301 5.02512
1 -9.94258 2.23194 5.69164
1 -9.6249 2.45815 4.78698
1 -9.96597 1.9943 4.02236
1 -9.47975 1.2013 3.65697
1 -10.099 1.53582 2.95856
1 -10.4259 2.42805 3.11676
1 -9.74754 3.1308 2.96151
1 -8.96016 3.02736 3.472
1 -9.05542 2.22648 3.03946
1 -5.8807 -9.08439 0.0651153
1 -5.40049 -9.50588 -0.654947
1 -5.41716 -9.20025 -1.50947
1 -5.10368 -8.95202 -2.35443
1 -4.28359 -8.53633 -2.51438
1 -4.02669 -7.58456 -2.46028
1 -4.65422 -7.6612 -3.17026
1 -4.9611 -7.79005 -4.04612
1 -5.45513 -8.6561 -4.13087
1 -5.5825 -9.01889 -3.2609
1 8.11519 5.88106 0.52397
1 7.6548 6.75231 0.351541
1 7.17403 6.79558 1.19743
1 8.08059 6.37792 1.49919
1 8.15153 5.70424 2.17831
1 8.91808 6.19211 2.38311
1 9.37098 5.45592 1.93663
1 10.1866 5.05443 1.60604
1 10.1153 4.56829 2.50512
1 9.43795 4.258 1.89737
1 -5.74115 -6.92851 -3.37436
1 -4.6875 -6.68866 -3.61724
1 -4.08977 -6.7005 -2.92093
1 -3.93957 -5.71857 -3.22482
1 -3.32118 -5.34445 -3.82897
1 -3.3307 -4.95402 -4.72465
1 -3.96168 -5.46842 -5.31155
1 -3.30657 -5.25323 -5.98855
1 -2.61951 -5.49482 -5.4215
1 -3.1602 -6.21419 -5.04901
1 -0.457424 -6.88636 6.99152
1 0.410521 -6.66976 7.30215
1 0.337636 -5.92591 7.87011
1 0.816758 -5.18917 7.39475
1 0.135002 -5.64478 6.90117
1 -0.112504 -4.81066 6.59697
1 -0.242267 -3.85795 6.63535
1 0.442682 -4.15145 7.23846
1 0.211684 -4.54628 8.09462
1 -0.705244 -4.9025 8.05469
1 -3.29821 2.72547 -8.8747
1 -3.4219 3.00218 -7.93132
1 -3.54429 3.88853 -7.56404
1 -4.35381 3.39193 -7.68971
1 -4.27519 2.99892 -8.57597
1 -3.72727 3.76366 -8.67138
1 -3.77896 4.73759 -8.71657
1 -4.45645 4.26151 -8.20196
1 -4.74384 3.8158 -9.00832
1 -4.5843 4.47404 -9.69377
1 1.4 -2.13218 -0.50144
1 1.58879 -1.37989 -1.02293
1 1.52028 -0.552022 -1.53317
1 1.97395 -0.442781 -2.45048
1 2.23536 -0.400239 -3.36804
1 2.96369 -0.971647 -3.58166
1 3.66404 -0.759088 -2.82365
1 4.01103 -1.25919 -3.53925
1 4.31469 -1.90936 -4.12356
1 5.03309 -1.4457 -3.67692
1 -7.81511 8.87878 -9.50712
1 -6.91079 8.52816 -9.58873
1 -5.85496 8.38519 -9.64539
1 -5.60387 7.73189 -8.9597
1 -6.53896 7.54505 -9.04319
1 -6.54542 6.60991 -9.46106
1 -6.9897 7.09465 -10.1463
1 -6.76954 7.09167 10.2153
1 -5.83617 6.9867 10.3379
1 -5.823 7.33248 -10.0169
1 0.534348 3.6816 10.4364