8000
Atoms. Timestep: 10000000
1 8.28374 1.71656 2.3123
1 8.62562 0.936833 1.73285
1 8.25417 0.175429 1.3168
1 8.60249 0.223201 0.464641
1 9.41091 0.587825 0.809842
1 9.60694 1.29355 1.46743
1 9.40287 2.07809 1.96575
1 9.02576 2.20638 2.78381
1 8.99094 3.15384 2.91454
1 8.45022 3.62368 2.26084
1 -4.07424 -2.56983 -7.14356
1 -4.86761 -2.57882 -6.57051
1 -5.43305 -1.84516 -6.98931
1 -5.01943 -0.854012 -7.14496
1 -4.39229 -0.956866 -7.85955
1 -4.66317 -1.0262 -8.76172
1 -3.72647 -1.15682 -8.55371
1 -3.22479 -0.754884 -7.81585
1 -2.87366 -1.64664 -8.02162
1 -3.56102 -2.19663 -8.33329
1 8.03999 2.75766 1.94944
1 7.44418 3.00982 2.67141
1 6.62505 3.33449 3.03196
1 5.93399 2.70227 3.40699
1 5.95751 1.90346 2.85228
1 6.13702 2.6811 2.29409
1 5.31723 3.15319 2.1035
1 4.93286 3.9412 1.78096
1 4.53536 4.74411 1.45831
1 4.33542 4.88434 0.445496
1 -8.63786 -9.99333 -1.86476
1 -9.0434 -9.27466 -1.42284
1 -8.77406 -8.84906 -2.24155
1 -7.87345 -8.81571 -2.49536
1 -7.25358 -8.06051 -2.2629
1 -8.15408 -7.71319 -2.31727
1 -8.43258 -7.58539 -1.39754
1 -7.8659 -8.38653 -1.35159
1 -8.47443 -8.64913 -0.652401
1 -7.97425 -7.91505 -0.345732
1 1.15843 -5.12432 -3.82329
1 0.581077 -4.51614 -4.20048
1 0.440864 -5.4183 -4.49695
1 0.420789 -5.80684 -5.39965
1 1.06103 -6.01252 -6.08928
1 0.48275 -5.63638 -6.79194
1 0.939548 -4.91941 -6.30559
1 1.20055 -4.80737 -5.39477
1 1.87657 -4.65287 -4.77818
1 1.67217 -4.23695 -3.97
1 -2.96909 -1.61058 2.79901
1 -3.70107 -2.22663 2.97504
1 -4.38265 -2.59946 2.33386
1 -4.27951 -1.65514 2.17022
1 -4.76461 -1.60205 2.95793
1 -5.21108 -2.03282 3.65025
1 -4.44433 -2.62302 3.56327
1 -4.61254 -3.37523 3.04606
1 -4.4722 -3.57099 2.09501
1 -3.56391 -3.43109 2.46361
1 1.75049 6.07185 -8.46196
1 1.27669 5.19038 -8.60044
1 0.65402 5.93232 -8.52334
1 0.634497 6.27799 -7.66187
1 0.985698 5.75401 -6.85113
1 1.30068 5.6581 -5.95151
1 0.594149 5.26383 -5.4792
1 0.251113 5.50506 -4.61517
1 1.06291 5.84618 -4.2291
1 0.991321 6.74397 -4.07848
1 5.89374 1.69653 3.89882
1 5.0167 2.0666 4.12059
1 5.64252 2.69865 4.32752
1 4.76422 2.95081 4.70748
1 4.28044 3.05357 3.94053
1 3.92244 2.22536 4.27661
1 4.23331 2.25721 3.37451
1 4.95586 2.79419 3.02368
1 4.21052 2.64753 2.45404
1 4.99537 2.20293 2.11505
1 -3.99635 7.20444 9.10663
1 -3.91869 6.39457 9.64998
1 -4.39003 5.76824 8.98501
1 -4.02996 6.24522 8.27865
1 -3.45641 5.87043 8.93952
1 -3.72888 5.01722 8.5508
1 -4.33082 4.83108 9.27571
1 -4.05722 5.34461 9.96148
1 -3.98687 4.35416 10.3232
1 -3.14397 4.59858 10.6497
1 2.61256 -8.98256 7.57466
1 2.83413 -9.73956 8.17116
1 2.20932 -9.12977 8.54549
1 2.44596 -9.72426 9.26473
1 2.07959 -10.4018 8.77225
1 1.29032 -9.80586 8.60137
1 1.14273 -9.46659 9.4762
1 0.418778 -9.27221 8.96963
1 0.166069 -8.36635 9.17804
1 1.07778 -8.59627 8.84357
1 9.58694 1.59613 -3.07546
1 9.6631 2.49894 -2.8152
1 8.87867 3.14999 -2.89796
1 9.66727 3.69502 -2.85929
1 10.0795 4.05574 -3.59827
1 9.11537 4.2344 -3.61173
1 8.90585 4.44847 -4.55603
1 8.53882 4.72266 -5.38213
1 8.68226 5.58005 -4.91235
1 9.59019 5.34359 -4.86478
1 9.7541 7.84503 -0.56008
1 -10.668 8.14368 -0.542803
1 -9.98925 7.76056 0.0596777
1 -10.3959 8.57262 0.482627
1 10.5075 8.29798 1.31771
1 9.8657 8.91945 1.01192
1 10.5107 9.372 1.58043
1 10.329 10.1562 2.11648
1 10.2062 -10.2438 2.35025
1 9.75172 -9.56627 2.7664
1 6.90087 0.771799 2.68723
1 6.31399 1.17196 2.09484
1 6.60859 1.70889 1.38468
1 7.40215 1.25031 1.65241
1 7.83687 0.977451 0.769257
1 7.01115 1.29148 0.45932
1 6.25936 1.71753 0.00645212
1 6.36913 0.796338 -0.399379
1 6.74994 0.544727 -1.22906
1 6.60422 1.42847 -1.51266
1 -5.08285 3.99982 -4.1939
1 -5.0776 3.70293 -3.26788
1 -5.52403 2.8258 -3.14791
1 -5.85765 3.06802 -2.31184
1 -6.64678 3.44846 -1.84909
1 -7.61149 3.53057 -1.78901
1 -8.10231 4.37502 -1.96617
1 -8.7687 4.6582 -2.64507
1 -8.77081 5.39878 -2.04192
1 -8.55404 6.3064 -2.27395
1 -3.67625 -5.51812 -2.35228
1 -3.10469 -5.78031 -1.62796
1 -3.296 -6.12017 -0.772305
1 -2.33918 -6.05088 -0.753611
1 -1.71385 -6.85593 -0.908562
1 -1.66189 -6.72497 0.0754243
1 -2.27893 -7.18609 0.601106
1 -2.15096 -7.70159 -0.191273
1 -3.11646 -7.4112 -0.0216405
1 -2.87598 -7.34596 -0.92178
1 -8.37113 3.15443 -0.676083
1 -9.10941 3.68677 -0.6851
1 -9.04365 4.54872 -0.222133
1 -8.15141 4.46526 -0.543863
1 -7.99327 4.63832 0.363428
1 -7.38338 3.95185 0.703732
1 -6.88659 4.52357 0.0933764
1 -7.24265 5.38303 -0.0808987
1 -7.97183 5.86006 0.323355
1 -8.70808 5.31636 0.343304
1 9.86677 9.59992 5.13436
1 8.95276 9.78784 5.22537
1 8.73873 9.91054 6.16545
1 9.25832 9.81235 6.91397
1 9.69063 10.6568 6.88833
1 9.76205 10.5561 5.97748
1 10.2585 -10.0402 5.59382
1 9.41054 -10.1054 5.19614
1 9.20609 -10.0699 4.24396
1 8.59223 10.6327 3.9308
1 5.59877 -5.45738 8.3651
1 5.65766 -5.4382 9.33473
1 4.69844 -5.43161 9.55636
1 3.88622 -5.87638 9.66103
1 4.52342 -6.1712 10.3712
1 5.43482 -6.11513 10.2453
1 4.89463 -5.33634 10.6376
1 5.25566 -5.89329 -9.96172
1 6.22001 -5.81816 -10.1573
1 6.25251 -5.18785 10.4586
1 -7.14971 5.96569 -7.00326
1 -7.22294 6.86727 -6.7008
1 -6.66014 6.29967 -6.12298
1 -6.42768 6.07475 -5.23375
1 -6.51408 5.81951 -4.29609
1 -6.98051 5.07232 -4.12617
1 -7.21726 4.72538 -4.98593
1 -7.25202 4.61675 -5.93494
1 -7.29087 5.58666 -5.87241
1 -7.98791 5.33329 -6.58376
1 8.21767 -2.01625 7.55933
1 8.04624 -2.51086 8.30238
1 8.57394 -3.05707 8.84646
1 9.51959 -3.33548 8.68425
1 10.0521 -2.82414 9.24738
1 10.2549 -2.37712 8.44152
1 10.6715 -3.12816 8.00454
1 -10.367 -3.93344 8.23145
1 -10.4747 -4.27555 7.28376
1 10.1776 -4.42168 6.49552
1 -0.120296 8.31156 -4.57649
1 0.534935 8.83586 -5.07694
1 -0.141853 8.56139 -5.61181
1 0.295403 8.62259 -6.47679
1 0.0583875 9.4842 -6.02388
1 -0.10423 10.2974 -6.52607
1 0.467479 -10.3734 -6.31268
1 0.929499 -9.68702 -6.82858
1 1.22673 -10.3785 -7.49583
1 0.609089 -10.5098 -8.16819
1 5.3984 10.5756 -7.75405
1 4.94004 -10.5786 -6.91211
1 5.27121 -9.72931 -7.24251
1 6.11955 -9.21168 -6.96962
1 6.79123 -8.64571 -7.35163
1 7.52697 -8.93223 -7.93665
1 8.23424 -8.33347 -7.73575
1 8.72759 -7.95093 -6.92312
1 9.37632 -7.89244 -7.59986
1 8.73662 -7.08688 -7.74526
1 5.47146 6.21353 -7.61724
1 4.72986 6.49275 -8.10832
1 5.0024 7.17577 -8.75448
1 4.33416 7.38427 -9.44621
1 3.85492 6.67317 -8.91194
1 3.44294 7.57257 -8.64307
1 2.51039 7.42504 -8.86016
1 2.45508 7.03771 -7.97725
1 2.85593 6.50155 -7.293
1 3.60523 7.07941 -7.69638
1 10.2397 -1.9204 3.08263
1 10.039 -2.258 3.90276
1 9.13938 -2.47021 3.97235
1 8.68163 -1.65711 3.85302
1 8.69746 -1.80681 4.83634
1 9.44232 -1.2361 4.63944
1 10.3262 -0.758447 4.49122
1 9.94143 -1.05548 3.65666
1 -10.5791 -0.778226 3.27825
1 10.643 0.123213 3.74667
1 -0.854931 -10.0947 3.07651
1 -0.912815 -10.3249 2.14554
1 -0.64982 10.2257 1.64187
1 -1.24777 9.82159 2.20628
1 -0.522181 9.40693 2.78691
1 0.0688582 9.06886 3.48726
1 -0.130452 8.10068 3.71698
1 -0.586782 7.46524 4.2592
1 -1.46511 7.30009 3.93143
1 -1.93305 8.06555 4.20126
1 2.29063 -2.64384 -5.68255
1 3.05823 -2.79235 -5.101
1 2.28462 -2.98689 -4.59548
1 2.50289 -3.79469 -4.96312
1 2.97948 -4.62881 -5.46057
1 2.09652 -4.61156 -5.72075
1 2.03749 -5.54281 -5.9661
1 2.51685 -5.57902 -5.11945
1 2.26521 -5.61831 -4.16866
1 1.52994 -6.07329 -3.63538
1 -7.87232 9.6317 10.1561
1 -7.87663 10.5827 9.92119
1 -7.3897 10.4514 -10.526
1 -8.18583 9.99122 -10.135
1 -8.74155 10.4089 10.5484
1 -9.45492 9.95411 -10.494
1 -10.3421 9.78193 -10.179
1 -10.1965 8.795 -10.4497
1 -10.4996 8.61559 9.98006
1 10.4424 7.92612 10.5628
1 5.55492 -5.67009 -6.97844
1 5.03034 -6.17451 -6.30346
1 4.69918 -6.3698 -5.42291
1 5.20939 -6.19609 -4.64194
1 4.46619 -5.71356 -4.42841
1 4.29574 -5.42457 -3.55959
1 4.74778 -4.58314 -3.59769
1 5.7367 -4.45413 -3.69524
1 6.39264 -3.9349 -4.24349
1 5.94308 -3.43518 -3.56822
1 9.19251 8.32378 -7.72854
1 8.43499 7.73076 -8.0115
1 8.42329 8.60362 -8.54844
1 7.65517 8.58552 -7.97842
1 7.00298 8.16091 -7.484
1 7.17183 7.56508 -8.13768
1 7.06416 7.0136 -8.99137
1 6.22127 6.8376 -9.51532
1 5.9314 6.26982 -8.72211
1 6.1439 6.99954 -8.15164
1 -3.65724 7.64307 -7.8194
1 -2.85492 7.78273 -7.41039
1 -2.9767 6.84086 -7.58681
1 -3.76556 6.29628 -7.56208
1 -4.2927 6.98903 -7.23042
1 -4.43101 6.9388 -6.31773
1 -4.06384 6.01133 -6.17123
1 -4.08277 5.55009 -7.00314
1 -5.04409 5.2827 -6.94112
1 -5.33658 4.37743 -6.84482
1 0.62701 6.05421 -2.00348
1 0.360051 6.07219 -2.95857
1 -0.253838 5.41643 -2.73103
1 0.370546 4.99768 -3.37397
1 0.490313 4.05988 -3.59737
1 0.496969 4.40122 -4.43629
1 0.198405 3.65304 -4.82177
1 0.0408767 4.42055 -5.41143
1 -0.527885 4.42701 -6.18793
1 -0.962546 4.78728 -5.47306
1 -9.72596 8.24378 1.23573
1 -10.0919 8.32606 2.17539
1 -9.7599 9.12708 1.8617
1 -9.18153 9.83898 1.52958
1 -9.25982 9.31442 0.705799
1 -9.13613 8.42366 0.267469
1 -8.41384 8.33989 1.02866
1 -7.83703 7.83593 0.413359
1 -7.46335 7.43658 -0.415778
1 -7.09915 7.01722 0.314513
1 0.357598 -1.09283 4.99092
1 1.29287 -1.16787 4.76957
1 2.1091 -0.735343 5.12368
1 2.97802 -0.32303 5.38454
1 3.55128 0.211608 4.80512
1 3.31996 -0.779477 4.51409
1 3.02437 -1.58697 5.02877
1 2.89784 -2.32649 4.4689
1 2.28532 -2.52466 3.72902
1 2.39956 -1.50041 3.7804
1 -8.80969 -3.53886 0.284085
1 -8.20437 -4.19155 0.122379
1 -7.49997 -4.76882 0.544144
1 -6.74363 -5.3635 0.378961
1 -6.50025 -6.30174 0.356231
1 -6.45949 -6.15971 -0.59164
1 -6.91774 -7.03699 -0.699509
1 -6.68342 -7.94628 -1.00589
1 -5.91161 -7.32315 -1.02608
1 -5.65106 -6.47948 -1.10722
1 -9.87615 1.27165 0.052673
1 -10.072 0.437808 0.44883
1 -10.042 -0.505624 0.550351
1 -9.28029 -0.898925 0.226514
1 -8.35303 -0.749053 0.369464
1 -8.89597 0.0357824 0.546128
1 -8.66879 0.904465 0.144608
1 -8.10434 0.695641 0.876878
1 -8.18651 1.12573 1.70156
1 -7.53123 1.71167 1.20268
1 -7.54214 1.28542 5.71038
1 -6.59795 1.51554 5.9753
1 -6.28454 0.632364 6.068
1 -5.48376 0.193644 6.01586
1 -5.57582 -0.570373 6.54435
1 -5.74856 0.202758 7.04132
1 -6.51645 -0.0360551 7.61573
1 -6.95216 0.764441 7.88368
1 -7.09483 1.46895 8.56256
1 -6.47222 2.03763 9.02037
1 5.75988 3.00655 9.79684
1 4.89502 2.76844 9.97578
1 4.41354 2.04131 9.56138
1 4.30417 2.18792 10.5871
1 5.03063 1.82595 -10.2683
1 4.97153 0.891808 -10.1428
1 5.67318 1.00181 -9.51822
1 6.31543 0.684554 -10.123
1 6.89499 -0.0723359 -9.8943
1 7.55134 0.649069 -10.0747
1 3.03875 -4.32633 9.00299
1 3.79835 -4.74992 9.4422
1 4.22902 -4.42937 8.65526
1 4.04794 -5.29966 8.36433
1 3.42933 -4.7367 7.84623
1 2.53519 -5.02989 7.73375
1 2.10466 -4.70998 8.52799
1 1.52309 -4.99774 9.32267
1 0.964907 -4.2505 9.31101
1 0.160601 -4.01341 8.81014
1 1.06513 -4.70282 -1.46503
1 0.882792 -4.17493 -0.646102
1 1.17281 -3.40413 -1.1209
1 0.957418 -2.435 -1.23565
1 1.81688 -2.22814 -0.968696
1 2.13461 -3.07901 -0.630946
1 2.27557 -3.53423 -1.57317
1 2.93691 -2.89275 -1.32236
1 3.17048 -3.24942 -0.435776
1 3.64079 -2.94507 0.410995
1 9.79788 -2.39241 4.96113
1 9.92236 -3.28667 4.60906
1 10.6118 -3.21583 3.99866
1 -9.84461 -2.98748 4.28812
1 -10.3453 -2.19313 3.90895
1 -10.6514 -1.77412 4.75111
1 -10.6388 -2.61425 5.18978
1 -10.2833 -1.94413 5.84877
1 -10.0505 -2.79233 6.31191
1 -9.96914 -3.21749 7.18203
1 8.60053 -2.88823 -6.11303
1 8.41084 -3.72734 -6.49862
1 9.06035 -3.49334 -7.18999
1 9.93004 -3.28117 -6.76196
1 -10.6412 -3.60317 -6.40848
1 -10.5174 -3.19864 -5.52846
1 -10.6687 -2.42448 -4.87469
1 -10.1477 -3.09108 -4.42319
1 -9.52465 -2.55448 -5.00339
1 -9.85101 -2.25119 -5.82976
1 10.5409 6.53916 3.63424
1 -9.90334 6.85053 3.90465
1 -9.87459 6.66834 4.83056
1 10.5118 6.74112 4.99208
1 9.89188 6.10798 4.62086
1 10.3559 5.82371 5.44497
1 10.1194 4.89071 5.16323
1 9.45595 5.24435 5.82047
1 9.80225 5.20447 6.76647
1 9.26577 5.50502 7.56764
1 -5.58559 -1.49617 -3.67687
1 -5.04904 -1.59343 -2.88979
1 -4.87735 -0.702735 -3.27772
1 -4.58418 -0.8631 -2.37223
1 -5.52748 -0.608083 -2.35362
1 -5.51074 -0.657069 -1.33699
1 -5.66279 -1.4105 -1.87556
1 -6.39404 -1.44138 -2.57789
1 -6.87714 -0.731445 -2.99062
1 -7.11169 -0.416959 -2.1006
1 10.5476 1.2076 -10.1115
1 -10.1874 0.45691 -9.83383
1 -9.3256 0.758146 -10.0312
1 -9.65233 0.103909 10.6319
1 -10.2919 0.20415 9.92888
1 -10.4315 -0.60522 10.4289
1 10.4419 -0.153977 -10.1759
1 10.5458 -0.529193 -9.20149
1 -10.0779 -0.243593 -8.54364
1 10.3406 -0.284107 -8.16031
1 -5.21876 -7.32914 1.88192
1 -4.51923 -7.83322 2.25992
1 -3.81428 -7.48353 2.80298
1 -4.39885 -6.69299 2.74718
1 -5.22377 -6.43418 2.3304
1 -6.11701 -6.72283 1.95708
1 -6.27943 -6.6183 2.85605
1 -5.47793 -6.3836 3.25971
1 -5.03342 -6.94268 3.919
1 -5.23916 -6.1536 4.50252
1 0.541029 -7.30048 4.25679
1 0.654063 -7.18496 5.23679
1 1.5961 -7.38481 5.14288
1 1.52852 -6.46899 5.58506
1 0.985896 -6.46654 6.41618
1 1.47806 -7.33325 6.30129
1 1.53917 -7.04888 7.29414
1 0.768998 -7.55273 7.12178
1 0.253695 -7.49405 6.18968
1 -0.382989 -6.93221 5.83688
1 0.964906 2.18516 5.54868
1 0.19678 2.84243 5.57027
1 -0.590292 2.56189 4.89208
1 -0.672484 3.43808 4.54541
1 -0.491162 4.23284 5.11911
1 0.167553 4.78952 4.67273
1 0.598942 4.01774 4.31076
1 1.03951 4.61832 3.71118
1 0.184023 4.418 3.35405
1 -0.495846 4.65011 4.04505
1 7.75828 8.55055 7.41509
1 8.50442 9.17108 7.5181
1 9.14545 8.52577 7.30457
1 9.19169 7.74758 7.90107
1 8.51503 8.39136 8.22383
1 8.35344 9.28852 8.65572
1 8.7859 9.90543 8.02968
1 9.08083 10.6737 8.50668
1 9.83834 -10.6567 9.13031
1 9.67306 -10.2991 9.98313
1 -5.84877 6.82708 0.0175541
1 -4.99238 7.07725 0.256736
1 -5.35746 7.66916 -0.355671
1 -5.10928 8.6244 -0.410918
1 -4.40078 8.22419 -0.872933
1 -3.89346 7.44856 -1.48963
1 -4.07856 6.9042 -0.721621
1 -4.02443 6.33822 -1.47996
1 -4.97672 6.5569 -1.49923
1 -4.87635 7.47124 -1.38414
1 -1.45799 -0.114678 -2.43219
1 -1.00419 -0.950822 -2.52582
1 -1.75752 -1.01251 -1.98221
1 -2.76908 -0.760528 -1.90517
1 -3.59045 -0.291241 -2.14056
1 -4.1076 0.481526 -1.8952
1 -5.06108 0.29311 -1.59595
1 -4.93832 0.374055 -2.5315
1 -5.83182 0.579583 -2.29391
1 -6.31569 0.221723 -1.56496
1 -4.64643 -5.96015 7.53986
1 -4.48774 -5.46582 8.35065
1 -3.49228 -5.47247 8.36065
1 -2.74431 -5.3157 8.89201
1 -2.52482 -6.01963 8.28214
1 -1.78537 -5.51317 7.97654
1 -1.53812 -5.41088 8.92209
1 -1.50848 -6.3388 8.7692
1 -1.01242 -6.07836 9.5108
1 -0.451894 -6.06096 8.73699
1 8.07205 -3.75978 -7.64275
1 7.22763 -4.2303 -7.77985
1 7.74792 -4.92723 -7.29026
1 8.63797 -4.62018 -7.21228
1 8.61699 -5.3562 -7.78392
1 9.1294 -5.79038 -8.38913
1 9.7522 -5.58688 -9.15156
1 9.63548 -4.66561 -8.8876
1 8.87403 -4.21162 -9.27234
1 8.86511 -4.78132 -10.0718
1 0.760442 -4.07129 0.92953
1 1.56698 -3.92667 0.470544
1 1.22743 -3.25561 -0.127968
1 0.554662 -2.60142 -0.262855
1 0.393725 -3.18855 0.451568
1 0.0819927 -4.0607 0.144823
1 0.384457 -4.92198 0.3715
1 -0.270678 -5.00192 1.02304
1 -0.636026 -5.60651 1.69816
1 -1.3893 -5.23081 1.26683
1 -4.09571 -4.17411 -5.94657
1 -3.53066 -3.44677 -6.1171
1 -2.6441 -3.10314 -6.4019
1 -2.64436 -3.9839 -6.13896
1 -3.17396 -4.38499 -5.40216
1 -2.35882 -4.87595 -5.57936
1 -2.03196 -4.77505 -4.6484
1 -1.22519 -4.16899 -4.59481
1 -0.25671 -4.0957 -4.6972
1 -0.123639 -4.0071 -3.75696
1 -1.02762 5.54053 3.82353
1 -1.28351 5.44243 4.74122
1 -1.08985 5.19157 5.67466
1 -1.09984 6.20625 5.55583
1 -2.00941 6.07645 5.75671
1 -2.92728 6.05187 5.56208
1 -3.45341 5.71798 6.23586
1 -3.82897 5.54174 5.37072
1 -3.78576 6.14106 4.63704
1 -3.3909 6.66312 3.93135
1 8.24006 -8.19581 8.95302
1 7.98358 -7.87218 9.77389
1 8.75991 -7.42838 9.30397
1 9.3725 -8.00598 9.68857
1 9.97148 -8.38684 10.2477
1 10.1473 -7.67561 -10.5311
1 9.92563 -7.63746 -9.59311
1 10.0594 -6.65858 -9.28925
1 9.36732 -6.76799 -8.54056
1 8.71909 -7.10682 -9.17705
1 9.50445 5.80762 -3.8434
1 10.173 6.22755 -3.30253
1 10.4488 5.2686 -3.40725
1 10.5503 5.44242 -2.45992
1 -9.81848 5.35437 -2.19342
1 -10.2894 5.71735 -1.46373
1 -10.5109 4.70512 -1.39845
1 -9.60968 4.87611 -1.04879
1 -9.2856 4.18127 -1.5738
1 -8.9406 3.33109 -1.61258
1 3.25441 4.38759 0.86809
1 2.95956 4.75077 1.67868
1 2.67014 3.8196 1.76965
1 2.04209 3.34886 1.22742
1 2.55407 2.61208 0.862891
1 2.59203 2.54515 1.88524
1 2.41951 2.99702 2.6727
1 3.19801 2.43179 2.77858
1 3.21083 1.49511 2.85767
1 3.88825 0.987067 3.39084
1 3.56823 -8.59892 2.9003
1 3.82708 -7.63685 3.11277
1 3.91208 -8.25586 3.83873
1 3.08196 -8.12345 4.24575
1 2.68961 -7.62644 4.93558
1 2.47163 -6.81965 5.42909
1 3.02601 -6.14097 5.99108
1 3.47514 -5.3712 5.75997
1 2.82118 -4.77965 5.32786
1 3.08506 -4.28276 6.15228
1 -6.65335 -8.49594 -6.47032
1 -5.76665 -8.33485 -6.17299
1 -4.89617 -8.5513 -5.88871
1 -4.44578 -8.11821 -6.55249
1 -4.54115 -7.47417 -7.35954
1 -3.67228 -7.60173 -6.98634
1 -3.5112 -7.6802 -6.08114
1 -3.43931 -8.61235 -5.97342
1 -2.74141 -8.20007 -6.5251
1 -2.03131 -8.60442 -7.08149
1 -9.39265 -6.94902 5.54895
1 -9.48442 -7.46095 4.73576
1 -9.5102 -7.73735 3.77985
1 -10.3968 -7.88765 4.01438
1 10.5643 -6.93664 3.83296
1 -9.8481 -6.69962 3.90285
1 -10.2478 -6.76402 4.80951
1 -10.3384 -5.96068 5.29268
1 -10.4709 -5.03797 5.12401
1 -9.99123 -4.87029 5.93506
1 -1.89843 7.22412 9.01897
1 -2.28408 6.87956 8.22165
1 -3.09508 7.47491 8.51021
1 -2.50185 8.10404 8.05931
1 -3.0021 8.37515 7.26243
1 -3.27565 9.01867 6.56065
1 -4.19482 8.70988 6.36901
1 -4.02779 8.65791 7.26257
1 -3.6169 8.49332 8.12812
1 -2.95141 9.21892 8.08296
1 -7.26729 4.91172 4.71596
1 -7.141 4.04955 5.22099
1 -6.34482 4.36411 5.52981
1 -6.10334 5.17895 5.95637
1 -5.62211 5.5589 6.73034
1 -5.19265 5.87081 7.57084
1 -5.19897 5.2178 8.34692
1 -5.45047 4.76365 9.12312
1 -5.75174 5.64936 9.16361
1 -5.47272 5.48202 10.0297
1 2.69056 7.84539 3.43083
1 3.28112 7.13083 3.6963
1 3.80443 7.81438 3.29088
1 4.4695 7.24537 3.8076
1 3.99289 6.71286 4.47162
1 4.40408 5.91263 4.25251
1 3.64678 5.27638 4.17922
1 3.26258 4.50469 3.74665
1 2.44403 5.02434 3.6986
1 1.60752 5.5348 3.88821
1 -0.110172 3.29415 2.52513
1 -0.593317 3.40042 1.71611
1 -0.704105 4.05592 1.06112
1 -1.12055 3.84619 0.186451
1 -0.350837 4.48061 0.148989
1 0.41061 4.35853 -0.294576
1 0.0770143 5.26106 -0.261411
1 -0.247016 4.75443 -1.02449
1 0.162005 5.56259 -1.20247
1 0.709359 6.0734 -0.667019
1 7.21759 0.604234 7.44649
1 6.86224 -0.194903 7.87124
1 6.85827 -1.17048 7.87417
1 7.68158 -1.07931 7.37479
1 6.99534 -0.514104 6.96735
1 6.45688 0.297647 6.82434
1 5.98737 0.0572573 5.98768
1 6.60691 -0.654701 5.62503
1 6.41923 -1.16768 6.30784
1 5.92617 -0.736567 6.98364
1 8.93612 4.93497 -8.73909
1 9.55358 5.06375 -9.41352
1 10.0736 5.57814 -9.97567
1 9.18261 5.91742 -9.89666
1 8.48108 5.98011 -10.466
1 9.32066 5.8621 10.4494
1 8.9954 5.06034 -10.5836
1 8.12768 4.83224 10.3507
1 7.52443 5.15012 -10.3625
1 7.07842 4.65467 10.2567
1 3.12226 -0.0459696 10.1479
1 2.72862 -0.863068 10.4472
1 2.20338 -0.144587 -10.481
1 2.4459 -0.81946 -9.90614
1 2.67302 -0.16722 -9.18578
1 2.48819 -0.235269 -8.28903
1 2.7462 -0.793792 -7.51752
1 2.35051 0.0064501 -7.22193
1 1.49674 0.0503157 -6.88034
1 1.63995 0.97512 -6.43339
1 7.85481 -2.24628 -9.94912
1 8.34937 -1.94785 10.5698
1 8.57507 -2.38384 9.75657
1 7.67307 -2.03553 9.6981
1 7.4455 -1.09987 9.69112
1 7.73353 -1.5215 8.79712
1 7.54271 -0.696337 8.5367
1 6.79001 -0.454843 9.19685
1 6.49372 -0.183406 10.1629
1 6.13205 -0.902175 10.6293
1 -1.5529 7.84923 -8.72807
1 -1.07652 7.74854 -9.59188
1 -1.48535 7.8157 -10.4249
1 -0.570894 7.94858 -10.6175
1 0.00836599 7.8789 -9.81446
1 0.598231 7.80074 -9.03936
1 1.50848 7.99751 -9.34747
1 1.3607 7.77025 -10.2871
1 0.565204 8.21426 -10.6344
1 0.171394 7.57599 10.0471
1 -0.0146285 -2.30947 -4.12634
1 0.428427 -2.71376 -3.19149
1 0.859111 -3.52206 -3.46245
1 1.1235 -3.51177 -4.41365
1 1.30322 -2.58834 -4.03587
1 1.18117 -1.63616 -4.05766
1 0.774124 -1.83235 -4.86921
1 0.483035 -2.77046 -4.82955
1 0.0439725 -2.36475 -5.56214
1 -0.350982 -2.51642 -6.48688
1 0.00838713 5.52968 3.07491
1 0.567027 5.41369 2.38496
1 1.22027 6.10031 2.58578
1 0.27449 6.4209 2.48343
1 -0.580036 6.30085 1.8731
1 -1.19153 5.88113 2.48911
1 -1.75134 6.60396 2.49
1 -1.93936 7.44584 2.06554
1 -1.79519 8.33177 2.23985
1 -1.83229 7.82314 3.02486
1 -4.2228 -1.37092 8.02697
1 -3.38277 -1.4049 8.49766
1 -3.56645 -2.19323 8.01809
1 -3.58517 -2.93988 7.3979
1 -4.53743 -2.55761 7.40347
1 -4.69658 -3.25453 6.70692
1 -3.93319 -3.67661 6.27476
1 -4.40958 -3.14957 5.62254
1 -4.38853 -2.34776 6.2323
1 -3.52511 -2.65777 6.09686
1 7.11773 -0.346385 -8.03626
1 6.34046 -0.756962 -7.63575
1 5.86808 0.0067842 -7.22431
1 5.85661 0.893839 -7.57322
1 5.71845 1.73073 -7.16342
1 5.68484 1.93296 -6.15979
1 5.24434 2.72459 -5.98294
1 4.35588 3.01546 -6.35087
1 4.81979 3.71676 -6.02179
1 4.76794 4.42534 -6.68871
1 9.3566 8.33037 3.18203
1 8.95012 8.08933 2.35144
1 8.3313 7.29407 2.28991
1 8.07923 6.42875 2.58091
1 7.17639 6.6255 2.36049
1 6.22895 6.80594 2.59023
1 6.84942 6.87715 3.30066
1 7.63763 7.31425 3.06574
1 8.17808 6.87328 3.83756
1 8.03429 7.79081 4.13191
1 -10.3413 -8.34787 10.638
1 -10.521 -8.67577 -9.79724
1 -9.58525 -8.40381 -9.65761
1 -9.10458 -8.90228 -8.97544
1 -8.20141 -8.59093 -8.82907
1 -7.61114 -7.79322 -8.79742
1 -7.29187 -7.06844 -9.37446
1 -7.67527 -6.35772 -9.93674
1 -7.95469 -6.64176 10.5416
1 -7.31825 -7.17161 -10.4239
1 -5.25894 -6.00687 -8.76118
1 -5.87118 -6.70891 -8.94886
1 -6.22434 -6.16045 -8.12639
1 -6.10049 -7.12413 -7.75667
1 -6.5851 -7.2736 -8.51426
1 -7.24481 -6.60348 -8.28306
1 -7.13739 -7.02444 -7.42889
1 -7.96047 -7.00146 -6.98118
1 -7.32334 -7.72114 -6.72348
1 -7.75971 -7.31485 -5.93887
1 -2.98248 1.0885 -7.64674
1 -2.35349 0.499918 -7.34926
1 -1.76248 -0.120441 -6.92007
1 -1.29296 0.694642 -6.97863
1 -0.57257 0.196059 -7.3593
1 -1.11586 -0.000173696 -8.1873
1 -1.01811 -0.0778261 -9.2007
1 -0.983245 0.853859 -8.82174
1 -1.71142 0.562685 -9.37014
1 -1.94929 0.935788 -10.212
1 9.92776 -2.39653 -10.3661
1 10.3234 -3.31114 -10.2062
1 9.44771 -3.48716 -9.79942
1 9.71637 -4.36829 -10.0655
1 9.28442 -4.3515 10.4089
1 8.68484 -3.84773 -10.4336
1 8.47315 -2.88836 -10.5532
1 7.78441 -3.09559 10.1554
1 7.0755 -2.64285 10.5192
1 6.44364 -1.93636 10.2656
1 -8.80925 1.30265 8.45778
1 -8.05727 1.4529 7.84223
1 -8.34973 2.23285 8.27608
1 -8.6342 2.37666 9.2003
1 -8.2108 3.15715 9.4601
1 -7.56401 2.51139 9.10224
1 -6.91756 2.66796 8.27158
1 -7.16178 2.20445 7.54494
1 -7.3261 1.61556 6.81001
1 -7.24772 0.685443 6.65445
1 4.71981 5.61579 1.87793
1 5.44454 6.17933 1.97914
1 5.74111 5.2849 2.25972
1 5.63347 4.86924 1.32258
1 6.16957 4.11054 1.10897
1 6.851 3.561 0.810565
1 7.80298 3.56857 0.984183
1 8.78962 3.5582 1.04591
1 9.18203 2.9798 1.69212
1 9.91788 3.10605 2.31755
1 7.98621 8.93018 4.50798
1 7.70734 8.93997 3.58165
1 7.26826 9.21852 2.79331
1 8.1684 9.48034 2.64757
1 8.61686 8.95514 1.90588
1 7.92575 8.32542 1.78758
1 7.95932 8.6534 0.903071
1 8.88596 8.51343 1.03702
1 8.56194 7.68129 1.19081
1 9.4819 7.48558 1.31239
1 4.4935 6.58878 10.3345
1 4.39827 6.23128 9.43707
1 3.82721 5.51903 9.02828
1 2.91059 5.44206 8.89169
1 3.17836 6.27789 9.39641
1 3.13084 7.29856 9.34146
1 2.25108 6.8637 9.35332
1 1.69896 7.08225 8.58487
1 1.45934 7.0539 7.65167
1 2.04598 7.86373 7.83092
1 -2.27838 -2.84593 -5.25914
1 -1.53559 -3.22504 -4.81814
1 -0.712023 -2.82702 -4.90107
1 -1.13232 -2.81364 -5.78391
1 -1.84112 -2.6213 -6.39895
1 -1.97314 -2.9607 -7.27228
1 -2.83493 -2.77133 -7.39641
1 -2.87021 -1.97811 -6.88923
1 -2.86162 -1.06614 -6.6792
1 -2.31066 -0.947123 -7.439
1 -9.8347 0.95824 -4.27392
1 -10.1103 1.37403 -3.49895
1 -9.89165 2.07 -4.12792
1 -10.5441 1.61972 -4.64275
1 10.3075 2.06875 -5.37599
1 -10.3503 2.61458 -5.24536
1 10.5675 3.00244 -4.43097
1 9.95664 2.95118 -3.73219
1 9.63912 3.51953 -4.42435
1 9.80623 2.99108 -5.23125
1 -10.0935 -0.0357329 8.15899
1 -9.72219 0.805909 8.31531
1 -10.5425 1.03905 8.83048
1 9.90585 1.27715 8.73071
1 9.1321 1.37683 9.23868
1 8.91466 1.5781 8.30547
1 9.1055 1.88837 7.42886
1 8.73505 2.5375 6.7498
1 9.08011 2.48491 5.82908
1 8.11722 2.26601 6.05491
1 -5.83586 10.1445 -2.99554
1 -5.67141 10.0961 -3.99324
1 -5.69179 9.25292 -3.78689
1 -5.64079 8.36101 -3.65565
1 -5.8025 7.76675 -2.9329
1 -4.87682 7.9673 -2.61155
1 -4.74271 8.50959 -1.80087
1 -5.58473 8.65083 -2.23317
1 -5.48247 9.26254 -1.58111
1 -4.84691 9.98918 -1.5067
1 4.88789 -8.98825 -10.0612
1 5.13556 -9.88505 -9.90145
1 4.2101 -10.0417 -9.70713
1 3.80183 -10.651 -10.4199
1 2.88723 10.3864 -10.3169
1 2.24421 10.248 10.3429
1 1.50875 9.90804 -10.5272
1 0.623479 9.45676 -10.5893
1 0.0957454 9.07305 -9.82824
1 -0.819249 8.78342 -9.88786
1 0.437967 -0.162585 2.75296
1 0.909591 -1.03402 2.8591
1 0.24327 -1.6859 2.62278
1 -0.693785 -1.61301 2.94071
1 -0.512601 -2.56535 3.28213
1 -0.0885034 -2.63239 4.13778
1 -0.920012 -2.59835 4.59159
1 -0.242591 -2.87466 5.23229
1 0.432268 -2.28762 5.03508
1 1.24035 -2.38203 4.54543
1 3.01753 -5.99241 -8.4919
1 2.86907 -5.24531 -7.96997
1 2.85075 -4.48256 -8.63028
1 2.13613 -5.09179 -8.82845
1 1.96311 -5.13983 -9.85233
1 1.87103 -5.90104 -9.41221
1 2.39125 -6.75911 -9.38731
1 2.95631 -6.96432 -10.1418
1 3.54766 -7.69241 -10.3403
1 4.17534 -8.32516 -10.638
1 -5.4049 -3.39262 -0.620289
1 -4.70304 -3.14142 0.0110083
1 -4.07941 -3.57155 -0.516638
1 -4.03191 -4.01057 -1.34445
1 -3.38873 -3.29332 -1.25631
1 -2.66548 -3.74576 -1.64727
1 -3.06025 -3.75958 -2.44302
1 -3.06729 -4.56236 -1.98165
1 -3.92036 -4.37576 -2.46622
1 -4.78603 -4.04555 -2.448
1 -9.89241 -0.40442 4.31776
1 -9.89418 -1.27909 3.93447
1 -9.60154 -1.21638 4.89492
1 -8.97965 -1.69282 4.4063
1 -8.61659 -1.40331 5.2376
1 -9.27537 -1.43037 5.98371
1 -9.0393 -2.31598 6.29273
1 -8.40563 -2.75162 5.78853
1 -7.98039 -2.75434 4.88484
1 -7.24233 -2.22493 5.35711
1 -9.22794 -6.91205 -5.46699
1 -9.85212 -6.20997 -5.57228
1 10.6516 -6.65042 -5.60554
1 -10.4263 -6.41441 -6.50389
1 -9.9249 -6.1299 -7.31603
1 -10.2338 -6.96493 -7.80165
1 -9.39688 -6.93278 -8.17739
1 -9.12859 -6.01316 -8.16881
1 -8.46646 -5.40783 -8.29852
1 -8.85587 -5.62732 -9.14685
1 -7.84962 -2.55727 2.008
1 -8.5278 -2.31227 2.69513
1 -8.87446 -1.66214 3.32475
1 -8.42151 -2.45636 3.78451
1 -7.6179 -2.46976 3.07697
1 -7.16577 -1.78787 2.59847
1 -6.58926 -2.54924 2.25475
1 -5.64686 -2.31039 2.26543
1 -5.23873 -1.57321 1.86873
1 -4.87059 -2.28635 1.34643
1 -6.67493 -1.01413 -1.37205
1 -7.02909 -1.85526 -1.17929
1 -6.98637 -1.66117 -0.275672
1 -7.85718 -1.19618 -0.318665
1 -7.18628 -0.631898 0.272022
1 -7.18675 -0.288389 -0.617053
1 -7.55226 0.119133 -1.42987
1 -8.3565 -0.421609 -1.71567
1 -8.54754 -0.218758 -0.810428
1 -9.47757 -0.294694 -1.27472
1 -2.93483 3.64879 1.70723
1 -2.81788 2.76716 2.09479
1 -3.28143 2.09625 1.60141
1 -3.73479 2.14099 2.42072
1 -2.87451 1.64524 2.41465
1 -3.23504 1.30845 3.2617
1 -2.5524 1.82874 3.6021
1 -1.91341 1.3964 4.09799
1 -2.05634 0.525624 3.95045
1 -2.92585 0.141022 3.71213
1 -8.36806 -1.34752 7.4442
1 -8.11211 -0.510573 7.91224
1 -9.00491 -0.470917 7.58628
1 -9.51647 0.332657 7.35878
1 -8.96684 1.0447 7.19394
1 -8.23972 1.21199 6.55582
1 -9.17821 1.49306 6.24103
1 -9.09033 0.567205 6.31245
1 -9.20197 -0.381826 6.3096
1 -9.8033 -0.643722 5.62544
1 -2.87492 5.64507 9.8272
1 -2.41921 6.4884 9.50528
1 -2.9388 7.13646 9.90821
1 -2.88964 6.55908 -10.6542
1 -3.4506 7.32947 -10.5401
1 -3.31064 6.82593 -9.74345
1 -3.55831 5.94262 -9.54341
1 -3.88011 5.86978 -8.64909
1 -3.02064 5.73387 -8.10756
1 -2.89877 5.64389 -7.19684
1 9.37862 8.49226 8.85026
1 8.98743 7.60685 9.06804
1 9.29318 6.82922 9.58422
1 10.1575 6.97252 10.052
1 -10.4308 6.43713 9.61417
1 -9.68694 6.01198 9.16723
1 -9.75928 6.94117 8.85173
1 -9.05041 7.4588 8.47437
1 -9.05961 8.39838 8.28952
1 -8.42098 8.73089 7.69318
1 4.72192 10.2816 -9.81318
1 4.97046 -10.5819 -8.97249
1 4.90653 -9.78154 -8.25696
1 5.81029 -9.62572 -8.11727
1 5.79619 -9.98856 -9.00706
1 6.47082 -9.91748 -9.76074
1 7.13854 -9.39938 -9.2375
1 6.48752 -9.03717 -8.65784
1 6.59745 -8.12199 -8.92043
1 6.36418 -7.53019 -9.58782
1 -9.6769 -8.72203 1.47606
1 -9.68097 -8.55169 0.483743
1 -8.70935 -8.56592 0.385923
1 -8.61169 -8.27908 1.27925
1 -8.85607 -9.19609 1.28285
1 -9.54425 -9.60119 0.727882
1 -10.0035 -9.78337 1.57099
1 -9.97139 -9.45959 2.48739
1 -9.26396 -8.85369 2.61903
1 -9.078 -9.68594 2.24556
1 -10.6118 1.65156 5.49201
1 -10.1757 2.49199 5.78022
1 -9.84191 2.29796 4.88555
1 -10.2967 1.9675 4.11256
1 -9.74469 1.27173 3.73775
1 -10.1249 1.86743 3.12055
1 -10.3821 2.72502 3.4389
1 -9.79599 3.29274 2.93067
1 -9.0003 3.08582 3.44745
1 -9.28677 2.42853 2.8333
1 -5.46832 -9.09604 0.190301
1 -5.3961 -9.37148 -0.697675
1 -5.66494 -9.38365 -1.63947
1 -5.05301 -9.29622 -2.441
1 -4.38454 -8.82855 -2.84522
1 -3.80635 -8.08931 -2.63514
1 -4.52879 -7.64278 -3.0895
1 -5.11424 -8.06405 -3.6543
1 -4.7943 -8.74333 -4.17034
1 -5.65174 -9.04144 -3.84533
1 8.30862 5.89001 0.539587
1 7.78447 6.60381 0.2156
1 7.09222 6.75967 0.825928
1 8.02516 6.6958 1.29612
1 8.54263 5.983 1.67166
1 9.13112 6.50048 2.27124
1 9.51529 5.74615 1.90492
1 10.008 5.02282 1.6543
1 10.2312 4.56178 2.4812
1 9.42731 4.01853 2.37755
1 -5.66877 -7.25618 -3.40867
1 -4.8385 -6.75045 -3.57851
1 -4.16771 -6.0652 -3.57506
1 -3.92018 -5.12551 -3.48289
1 -3.24822 -5.29391 -4.14399
1 -3.82379 -5.06762 -4.87586
1 -4.12539 -5.82724 -5.44561
1 -3.4486 -5.35763 -6.02522
1 -3.0205 -5.84322 -5.31291
1 -3.60617 -6.25225 -4.62609
1 -0.742301 -6.02477 7.75237
1 -0.26823 -6.56125 7.0947
1 0.639843 -6.42947 7.4533
1 0.675847 -5.53827 7.1595
1 0.00147549 -5.7794 6.518
1 0.0970012 -4.7564 6.40491
1 0.0327711 -3.85803 6.81769
1 0.262441 -4.55329 7.47279
1 0.0346552 -5.38943 7.95129
1 -0.788197 -4.91526 8.09838
1 -3.29068 3.06139 -9.19741
1 -2.8943 2.88253 -8.29371
1 -3.39817 3.37118 -7.59977
1 -4.29259 3.57756 -7.45545
1 -4.02493 3.30882 -8.36591
1 -3.35913 3.90892 -8.68485
1 -3.84026 4.75721 -8.82256
1 -4.55147 4.36062 -8.40139
1 -4.64839 3.88402 -9.20902
1 -4.61648 4.22182 -10.1046
1 1.15713 -1.54212 -0.294232
1 1.31723 -1.04567 -1.13147
1 1.24879 -0.348296 -1.93324
1 2.10344 -0.363754 -2.39145
1 2.2395 -0.100043 -3.31067
1 2.82528 -0.813293 -3.79161
1 3.17553 -1.1881 -2.94814
1 3.88076 -0.8744 -3.60172
1 4.29873 -1.77336 -3.71707
1 5.07254 -1.31706 -3.4938
1 -7.04684 8.40596 -9.53087
1 -6.4238 8.17635 -10.2154
1 -5.69378 8.609 -9.81746
1 -5.89405 7.94425 -9.13394
1 -6.59685 7.28515 -9.09679
1 -7.05904 6.66363 -9.62287
1 -6.69767 7.12787 -10.3558
1 -6.48523 7.1873 10.0839
1 -5.78536 6.80072 10.6578
1 -5.75734 7.34205 -9.97078