8000
Atoms. Timestep: 3000000
1 -4.89248 -0.300601 -9.53051
1 -4.19709 -0.550048 -10.1119
1 -4.56795 -1.32846 -10.5476
1 -5.31414 -2.01166 -10.597
1 -5.71058 -1.13778 -10.2801
1 -5.62451 -0.97216 -9.32508
1 -4.99202 -1.62107 -9.53292
1 -3.979 -1.49451 -9.54252
1 -4.06425 -2.30003 -9.05822
1 -3.11553 -2.35803 -8.88891
1 8.24276 1.96245 -5.68565
1 9.21902 1.87251 -5.81184
1 9.36968 1.22804 -6.52485
1 9.0766 0.754839 -7.22984
1 9.29585 0.927263 -8.2235
1 9.56169 0.0462633 -8.06303
1 9.28843 -0.260381 -8.95409
1 9.42872 -0.328769 -9.85729
1 10.2991 -0.478589 -9.30864
1 10.1936 0.486127 -9.16922
1 -7.67189 -3.58116 9.79505
1 -8.53825 -3.69751 9.6053
1 -9.11294 -3.71017 8.86051
1 -9.01608 -2.7826 8.73833
1 -9.76639 -2.20345 8.54824
1 -10.1246 -2.92324 9.10948
1 10.4755 -3.39661 9.37662
1 9.65856 -3.72378 9.6118
1 8.96788 -4.18327 9.9693
1 8.32141 -4.12195 9.29117
1 1.33632 -9.56792 -3.23905
1 1.17106 -8.68434 -2.82104
1 0.353571 -8.26842 -2.53235
1 0.450332 -9.16454 -2.23891
1 0.682631 -9.85514 -1.60856
1 1.38314 -9.97432 -2.33976
1 1.65294 10.6413 -2.83444
1 1.71132 10.1964 -1.98536
1 0.75786 10.6062 -2.05873
1 0.528022 9.72286 -1.88778
1 7.92959 -0.993209 -1.52862
1 7.46088 -1.45239 -2.35585
1 7.4283 -2.13561 -1.62153
1 7.6099 -2.68314 -0.85969
1 8.0175 -3.50908 -0.709197
1 8.96875 -3.37364 -0.650122
1 8.73813 -4.27156 -0.792159
1 7.94878 -4.64603 -1.12333
1 8.53138 -5.20007 -1.70546
1 8.50094 -5.85275 -2.44311
1 -7.61923 -7.15565 7.09018
1 -6.91578 -7.46495 6.39256
1 -6.43494 -6.7633 6.00095
1 -7.1069 -6.29132 6.33552
1 -7.48078 -5.52658 5.77159
1 -8.03232 -6.23843 6.0745
1 -8.60715 -5.41031 5.93314
1 -9.02528 -4.60634 6.17427
1 -9.69655 -5.07259 5.69017
1 -9.91616 -4.53332 4.94589
1 4.14729 -10.3881 4.92378
1 4.12376 -9.55346 5.33369
1 4.2411 -9.09445 4.44402
1 4.12513 -8.07483 4.50703
1 3.94898 -8.04261 3.62195
1 3.40426 -7.27009 3.72512
1 2.81353 -7.83703 4.24004
1 2.47471 -6.90934 4.31476
1 3.1509 -6.34538 4.04776
1 3.69665 -6.14729 4.76589
1 1.00637 4.51225 2.98374
1 0.843982 3.60952 3.26848
1 0.086481 4.09655 2.91585
1 -0.120978 3.60396 2.10206
1 0.68307 4.11545 2.0728
1 0.892661 3.97955 1.10422
1 1.36623 3.47196 0.474577
1 1.43965 2.82869 1.20758
1 2.29532 2.46303 0.937212
1 2.08321 1.52055 0.823751
1 -6.61721 8.52435 -3.43643
1 -6.80955 9.44948 -3.823
1 -7.74421 9.30839 -3.60402
1 -8.2598 8.6594 -3.15487
1 -8.21293 8.33815 -4.06941
1 -9.01138 7.83911 -3.9888
1 -8.95659 6.93194 -4.31985
1 -8.99961 7.03598 -5.25873
1 -9.60411 7.64979 -4.83773
1 -9.24445 8.46533 -5.27876
1 -2.63251 -1.77604 -0.0596053
1 -2.38534 -2.5477 -0.665604
1 -3.2742 -2.24779 -0.943184
1 -3.53868 -3.13403 -0.546523
1 -4.33438 -2.6643 -0.334326
1 -4.69994 -3.26745 -0.899758
1 -4.19651 -3.97904 -0.558681
1 -3.76105 -3.76071 0.273925
1 -4.57042 -3.85444 0.781293
1 -4.11077 -4.5552 1.24133
1 10.4711 5.19802 10.4425
1 10.5553 4.62737 9.68007
1 9.62801 4.77577 9.39027
1 9.62417 3.88378 9.58115
1 9.51643 4.10339 10.4986
1 9.99116 3.86079 -10.0874
1 10.2993 4.75651 -9.93334
1 9.55882 5.09974 -10.4223
1 9.15593 5.72853 10.3621
1 8.22976 5.5865 9.99789
1 -7.16468 -9.36323 -7.9628
1 -6.36494 -9.81723 -8.38077
1 -6.47284 -10.0073 -9.30352
1 -7.29778 -9.52961 -9.26772
1 -6.93158 -8.64953 -9.04165
1 -7.54315 -7.92651 -8.77757
1 -8.18157 -8.1961 -8.17521
1 -8.71006 -7.45345 -8.41746
1 -7.95533 -7.19899 -7.85881
1 -7.30005 -7.04156 -7.13582
1 4.52628 9.00653 -3.04307
1 3.72478 8.86153 -3.43621
1 3.53068 9.78343 -3.40344
1 4.3759 9.6462 -3.76151
1 5.20788 10.2274 -3.82159
1 5.89381 10.3204 -4.45608
1 5.39677 -10.2744 -4.61767
1 5.94746 -10.2724 -5.42058
1 5.72865 -10.3799 -6.40923
1 6.45474 -9.77559 -6.3428
1 0.994827 -2.56194 -7.11176
1 0.930387 -2.155 -6.25634
1 0.386694 -1.71173 -6.94201
1 -0.0832108 -1.1787 -7.63999
1 0.260146 -1.95674 -7.97196
1 0.0985127 -2.89304 -7.79099
1 0.442735 -3.77126 -7.55963
1 1.11863 -4.04597 -6.99879
1 2.05563 -4.0292 -6.71962
1 2.74401 -3.54545 -6.27656
1 -6.77662 -8.42798 -2.6662
1 -6.1562 -7.67787 -2.68473
1 -5.41609 -7.08176 -2.43671
1 -6.25362 -6.63366 -2.55369
1 -6.58991 -5.82781 -2.10399
1 -6.01055 -5.39716 -1.48097
1 -6.81914 -5.65507 -1.10496
1 -7.11745 -5.85385 -0.220033
1 -7.69271 -6.35393 -0.816197
1 -6.96566 -7.01602 -0.815154
1 -7.22205 -2.22732 6.44584
1 -6.35171 -2.65433 6.64018
1 -6.42052 -2.40332 5.66847
1 -5.81045 -3.05337 5.96652
1 -5.00381 -3.52611 5.78224
1 -5.49987 -3.7717 6.5738
1 -6.17528 -3.94997 5.88373
1 -5.43902 -4.58887 6.02138
1 -4.60919 -4.88414 6.16982
1 -4.54155 -4.37585 5.31918
1 10.2458 -10.3864 -4.17949
1 9.52939 -9.78361 -4.00457
1 9.22349 -10.6063 -3.79006
1 8.63906 10.1557 -3.32379
1 9.08825 9.39171 -3.6329
1 9.98745 9.59029 -3.28981
1 9.58593 9.03009 -2.62635
1 8.65632 9.16416 -2.75181
1 7.9237 9.18644 -3.35673
1 7.70799 8.84163 -4.24147
1 9.5051 -0.505506 6.23825
1 8.67485 -0.425937 6.74984
1 8.29598 0.26176 7.33051
1 8.70733 0.152268 8.19358
1 9.12236 0.335631 8.9599
1 9.93396 -0.0564458 9.02619
1 10.0842 0.204165 9.91538
1 10.0262 1.16811 9.87872
1 10.1841 0.895204 9.02643
1 9.51267 1.24972 8.45262
1 -9.43477 6.71761 1.95612
1 -9.65233 5.83316 2.22785
1 -10.1833 5.12915 1.82582
1 -9.62372 4.78947 2.53093
1 -9.89897 5.41914 3.10093
1 -9.8152 5.9237 3.85679
1 -9.00093 5.32807 3.76469
1 -8.60406 4.54415 3.39498
1 -8.33863 3.87397 4.06254
1 -9.08041 3.41641 3.70576
1 -6.82097 1.10584 5.7894
1 -7.60941 1.46268 5.32272
1 -8.09043 2.20983 5.05008
1 -8.3698 2.98777 5.5527
1 -9.24576 3.43453 5.36449
1 -9.08208 2.75767 4.72577
1 -8.86363 2.03765 4.21907
1 -8.84152 1.55001 5.0649
1 -9.53233 1.30089 5.68055
1 -9.94238 1.27302 6.57645
1 -8.53098 -6.95325 9.884
1 -7.76346 -6.81688 9.3552
1 -7.98035 -6.93584 8.41096
1 -8.64052 -7.38638 8.87989
1 -9.1555 -7.73237 9.70315
1 -8.53646 -8.20779 10.2166
1 -8.71721 -7.5122 -10.4849
1 -9.14064 -6.62101 -10.6015
1 -9.66722 -5.95411 -10.1827
1 -10.0542 -5.71458 -9.30044
1 -10.5397 1.79258 -6.29552
1 -10.3637 1.72303 -5.35349
1 -10.2214 1.15721 -4.57807
1 -10.4935 1.75671 -3.85982
1 -10.4386 2.69623 -4.14029
1 -10.4992 2.75294 -5.06377
1 10.2599 2.48551 -5.75567
1 9.81225 3.22671 -5.42533
1 10.604 3.7167 -5.42139
1 -10.0248 4.4788 -5.62552
1 -0.066911 -9.83428 7.35353
1 -0.310026 -10.182 8.21043
1 -0.466872 -10.378 9.11071
1 -0.418779 -10.1604 10.0565
1 0.466013 -10.3689 10.2523
1 0.917376 -9.76741 -10.4943
1 1.93888 -9.69878 -10.4768
1 2.52371 -9.64914 10.1278
1 2.35955 -9.8857 9.24102
1 2.40791 10.6074 8.9729
1 7.04146 -0.431754 -2.90158
1 7.48707 -0.104956 -2.13791
1 6.95685 -0.0395558 -1.23293
1 6.86822 -1.03435 -1.58612
1 7.03121 -0.910929 -0.601495
1 6.24273 -0.942391 -0.0754425
1 5.83458 -0.738331 -0.938865
1 5.49161 0.145226 -1.08726
1 4.93986 -0.128537 -0.367816
1 4.49642 -0.782511 -0.950231
1 7.71522 8.74859 -2.45724
1 7.99831 8.08283 -3.06298
1 8.8451 8.38834 -3.33185
1 9.25847 7.4948 -3.25271
1 8.91477 6.68314 -2.89416
1 8.04686 6.95564 -2.74826
1 7.8675 6.03579 -2.89773
1 7.04761 6.42829 -2.7658
1 7.3264 6.97454 -3.50033
1 7.06026 6.68252 -4.34061
1 1.11495 7.82246 5.13845
1 1.60397 7.99978 4.29904
1 1.01585 8.60655 3.79936
1 0.273073 9.0549 4.13995
1 0.974373 9.59942 3.66953
1 1.70097 9.4898 2.99617
1 2.08544 8.72536 3.46397
1 1.45221 8.41319 2.79094
1 0.882747 7.7346 3.20697
1 0.473026 7.3066 4.00031
1 -4.69334 -1.72126 -2.28997
1 -3.84269 -1.78732 -1.9453
1 -3.29805 -2.51523 -2.37074
1 -3.90176 -2.23824 -3.14361
1 -3.90765 -1.30971 -3.23767
1 -4.21635 -0.416555 -3.41293
1 -3.7435 0.0345467 -2.61961
1 -3.47021 0.418608 -3.41923
1 -2.56522 0.781245 -3.39088
1 -2.13174 0.606572 -4.25134
1 4.76307 4.84592 3.10943
1 3.88739 5.067 2.86663
1 3.01193 4.95713 3.22779
1 2.08487 4.98577 3.36437
1 2.17201 5.93405 3.05076
1 3.12526 6.19991 3.17584
1 3.35826 6.45317 2.26261
1 4.25146 6.13323 2.56101
1 4.26917 6.75039 1.86238
1 3.94148 6.80711 0.992488
1 -6.19562 3.23737 7.18174
1 -6.90335 2.71513 7.39668
1 -6.84317 1.92437 6.76114
1 -7.52117 2.51046 6.37799
1 -7.80756 2.02785 7.15986
1 -8.45863 2.11614 6.39514
1 -9.31427 2.36576 6.01125
1 -9.83181 2.19426 5.26403
1 -10.0823 2.20064 4.35704
1 -9.6017 2.28732 3.54214
1 -9.87437 3.23816 4.28541
1 -10.453 4.00699 4.32126
1 10.6665 4.6047 3.63585
1 -10.2521 5.00313 4.40126
1 10.1788 4.75636 4.52193
1 10.5299 5.31436 5.17599
1 9.93606 5.27847 5.98868
1 10.0222 4.7952 6.87605
1 10.3931 4.93692 7.73014
1 -10.4482 4.23875 7.26305
1 -0.859422 9.04541 -10.5351
1 -0.268145 9.76311 10.5701
1 -0.54569 10.5752 -10.3977
1 -1.42445 10.2759 -10.1349
1 -1.40193 9.83409 10.359
1 -1.36793 -10.6124 9.98097
1 -2.06089 -10.1547 9.4795
1 -1.83848 10.3675 9.19564
1 -2.55965 10.2425 9.7931
1 -2.09062 9.44484 9.55032
1 -1.3865 -1.53621 -5.79669
1 -1.29964 -1.15371 -6.62165
1 -1.41246 -1.73503 -7.38411
1 -0.647965 -2.22829 -7.36211
1 -0.630151 -1.77872 -8.2561
1 -0.961332 -2.07058 -9.11791
1 0.00375916 -1.85941 -9.27004
1 -0.102373 -2.63755 -8.7209
1 -0.617749 -3.37045 -8.35353
1 -0.492326 -4.12687 -8.96846
1 -9.56878 7.0114 10.6381
1 -9.98231 6.16333 10.3715
1 -9.61178 5.73938 -10.1631
1 -10.2744 5.34659 -9.5105
1 -9.60715 4.71104 -9.71308
1 -8.67222 4.72911 -9.9887
1 -8.19343 3.93007 -10.2721
1 -7.42576 3.94001 -9.65663
1 -6.50393 3.72332 -9.42002
1 -6.98073 4.02039 -8.65929
1 7.54775 4.93409 -9.13649
1 6.62942 4.4716 -9.07925
1 6.96171 4.87578 -8.1973
1 6.50573 5.30125 -7.48974
1 6.03805 4.46489 -7.47249
1 5.44071 5.21957 -7.63119
1 5.91876 4.86087 -8.36105
1 5.68571 4.49711 -9.2497
1 4.85654 3.99188 -8.99343
1 5.46523 3.41643 -8.55884
1 -8.61228 5.31013 -7.04652
1 -7.71051 5.48513 -7.24366
1 -7.18782 4.90817 -7.79691
1 -7.91815 4.39299 -7.61492
1 -7.7305 3.46333 -8.02937
1 -8.73561 3.47557 -8.09251
1 -9.2702 2.73952 -7.8144
1 -10.1701 2.40626 -7.97287
1 -10.1815 3.05992 -8.68136
1 10.5082 3.51815 -8.20815
1 2.3773 3.74525 5.86552
1 2.24426 2.9896 6.35683
1 2.21366 3.80362 6.90971
1 1.32035 3.49819 6.92574
1 1.8697 3.32835 7.74342
1 0.955306 3.16879 7.94973
1 0.631283 2.70091 8.76166
1 0.711633 3.6142 8.87637
1 1.61997 3.41005 8.8412
1 2.46484 3.81521 8.77412
1 -8.35454 -7.29691 -0.524533
1 -8.96409 -7.91049 -0.166524
1 -9.68663 -8.182 0.410706
1 -9.42739 -8.86814 -0.181264
1 -10.0893 -8.44436 -0.816071
1 10.3877 -8.20193 -0.699667
1 10.5707 -8.34326 0.231267
1 -10.3561 -7.6038 -0.149929
1 -10.2771 -7.40074 -1.04804
1 -9.61142 -7.0347 -1.75661
1 5.78705 2.20447 7.83677
1 5.96561 3.1585 7.9875
1 6.71628 3.46561 8.57838
1 6.90148 2.5281 8.56642
1 6.78505 2.62151 7.62311
1 6.19075 2.67422 6.84763
1 6.44113 1.80607 6.68246
1 5.52048 1.76476 6.7347
1 5.22306 0.908517 6.54666
1 5.6318 0.923922 5.6788
1 -4.72313 2.64718 -2.16442
1 -4.54395 2.08001 -2.87885
1 -4.90572 2.78435 -3.48572
1 -5.27522 3.52694 -2.94276
1 -5.49665 3.56915 -3.91419
1 -4.85949 3.20086 -4.41769
1 -5.30138 2.6023 -5.04796
1 -5.61277 2.25876 -4.23303
1 -5.03362 1.5922 -4.78952
1 -4.43427 1.06349 -4.28838
1 -9.54402 4.1905 8.78265
1 -10.0792 3.55236 8.31793
1 -10.4496 2.70418 8.31237
1 10.1169 3.0797 7.92227
1 10.1649 3.09317 8.85518
1 10.3591 2.98421 9.73634
1 -10.529 2.19111 10.0292
1 -10.2116 2.16349 -10.4752
1 -9.62009 2.74102 10.5175
1 -9.55613 2.10273 9.82386
1 -5.838 1.29611 7.11829
1 -5.72443 1.90545 7.82046
1 -5.57228 2.30107 6.96837
1 -6.00521 1.84233 6.22908
1 -6.46536 2.02814 5.36648
1 -7.02934 2.85988 5.52198
1 -7.0523 3.77197 5.76598
1 -6.17857 3.83522 5.34924
1 -6.29772 3.30179 6.1468
1 -5.7014 2.70698 5.79439
1 10.4941 5.20146 -8.73875
1 9.75623 5.39065 -8.13831
1 9.81027 4.46196 -8.47443
1 9.27644 3.94569 -7.92764
1 8.82565 4.36447 -7.20184
1 9.06734 5.27357 -7.37822
1 9.95654 5.10387 -6.91892
1 10.0103 4.13542 -6.84939
1 10.1782 4.47047 -6.00361
1 9.20729 4.2782 -6.02542
1 9.2933 9.17189 -6.45101
1 10.0194 9.63133 -6.93163
1 9.89278 9.56103 -7.87758
1 10.4674 10.2782 -7.90986
1 10.3373 9.93363 -8.84627
1 -10.4217 9.29245 -8.42977
1 -10.3445 8.66563 -9.0508
1 -9.46051 8.32774 -9.20218
1 -9.8258 8.71828 -10.018
1 -9.92087 8.9287 10.4728
1 4.32152 0.225095 -8.45268
1 4.07256 1.20226 -8.4765
1 3.50574 0.619472 -8.9787
1 3.67048 -0.280403 -9.09599
1 4.34268 0.104391 -9.62817
1 4.00035 0.986577 -9.79356
1 4.57281 1.06933 -10.6086
1 4.86536 1.90219 10.4184
1 4.91529 2.22499 -10.0721
1 5.46643 1.53596 -9.85365
1 5.15777 8.68758 6.45333
1 5.37686 9.58552 6.34015
1 6.0579 9.97594 6.92559
1 6.6456 9.95951 6.16955
1 6.79368 -10.6057 6.60695
1 6.82907 -10.1028 7.53151
1 6.94831 10.4203 8.01018
1 7.6228 -10.3729 8.22642
1 8.36875 -10.0047 7.74779
1 8.2745 -9.25774 7.17707
1 -8.05582 4.90349 4.55478
1 -7.61138 4.26452 5.05725
1 -8.54897 4.37511 5.28244
1 -8.26948 4.66097 6.10693
1 -8.5645 4.19731 6.83072
1 -8.99834 3.28103 6.74071
1 -9.16899 3.58279 7.64463
1 -9.56277 4.46173 7.79981
1 -10.0764 5.04889 8.32514
1 10.6306 4.36799 8.53018
1 4.94247 -10.0278 -5.63265
1 4.21204 -9.42598 -5.73263
1 4.94211 -8.92201 -6.26036
1 4.65742 -8.42566 -5.50384
1 4.00352 -8.2916 -6.13862
1 4.73548 -7.82991 -6.39318
1 5.70715 -7.94946 -6.59395
1 5.68061 -8.16555 -5.67164
1 6.16207 -7.33339 -5.67061
1 6.6666 -8.05997 -6.07922
1 -4.83451 -6.34245 -6.93989
1 -5.08742 -5.64126 -7.54638
1 -5.88974 -6.26808 -7.62845
1 -6.16144 -6.44835 -8.54544
1 -6.20521 -5.73549 -9.26599
1 -7.13709 -5.98017 -9.09286
1 -7.58418 -5.19896 -8.69467
1 -8.05278 -5.26656 -7.81095
1 -8.64607 -5.96975 -7.98133
1 -8.0855 -6.46132 -8.57199
1 9.62602 6.42475 -10.3908
1 10.0153 6.49147 10.1116
1 9.48711 7.28127 10.0301
1 8.82438 6.51232 9.76398
1 8.99504 6.95574 8.95489
1 9.36566 7.78819 8.58685
1 9.8408 6.88368 8.51883
1 9.46841 7.06419 7.68208
1 8.71622 7.59291 7.75798
1 8.2435 7.98117 8.4948
1 7.51554 -1.21442 -4.88943
1 7.42676 -0.29381 -5.15791
1 7.18019 -0.200705 -6.08501
1 6.77191 0.522261 -5.54228
1 6.17527 0.0246868 -5.0053
1 6.10772 -0.495061 -5.88398
1 6.02164 0.398793 -6.32935
1 6.23507 0.0466995 -7.19566
1 6.05 -0.666427 -7.82605
1 5.12065 -0.807564 -8.03818
1 -0.243151 1.83692 -1.32983
1 0.613891 2.11066 -1.7907
1 1.22402 1.68067 -1.2163
1 1.61428 1.76673 -2.11061
1 1.90504 1.4792 -2.99898
1 2.14009 2.33894 -3.35618
1 1.75775 1.92944 -4.12333
1 2.32655 1.16461 -3.93209
1 2.72033 1.61102 -4.65997
1 2.20533 2.32459 -5.13157
1 10.0196 -4.33005 -7.03243
1 10.4443 -5.13951 -7.1247
1 -10.5596 -5.67139 -7.80903
1 10.3431 -6.44105 -7.62018
1 9.73996 -6.35562 -6.87976
1 9.62479 -5.73851 -7.61781
1 9.82472 -4.96492 -8.06318
1 10.1599 -4.80302 -8.94229
1 9.84558 -4.02349 -8.5659
1 9.81388 -3.57205 -9.42289
1 6.72084 -2.05398 9.82683
1 6.61746 -1.47726 8.97881
1 5.64078 -1.45112 8.94713
1 5.80167 -0.591435 8.52454
1 6.66849 -0.700085 8.14603
1 6.11389 -1.42009 7.94116
1 6.33608 -0.875767 7.09676
1 6.10026 0.0473069 7.41074
1 5.365 0.227527 8.01327
1 5.26567 0.156042 8.94742
1 -4.09537 -8.5854 7.33417
1 -3.37918 -9.14377 7.62091
1 -2.68552 -9.07141 8.22385
1 -2.33887 -8.2286 8.5626
1 -1.58943 -8.36318 7.97516
1 -0.852472 -7.97181 7.48505
1 -0.242927 -8.57471 7.86555
1 0.582951 -9.11432 7.95432
1 1.00932 -8.62226 7.25018
1 1.19482 -9.54304 7.18402
1 8.08011 -7.89951 -7.57599
1 8.00058 -7.01025 -7.81028
1 8.1157 -7.69123 -8.57998
1 8.69717 -8.48035 -8.64009
1 8.30864 -9.29655 -8.9516
1 8.37707 -10.3226 -8.80883
1 8.48635 -10.3876 -7.83269
1 9.18772 10.4415 -8.13514
1 9.62543 -10.2753 -8.79403
1 9.2641 10.4104 -9.43828
1 3.25606 0.57882 -3.88864
1 2.86128 0.403796 -4.85441
1 2.17906 0.151212 -5.4719
1 1.73876 0.676848 -6.10906
1 1.73978 0.405613 -7.07273
1 2.32903 -0.0909397 -6.46838
1 3.21179 -0.344006 -6.7456
1 3.31014 -0.110226 -7.6884
1 4.17926 -0.544543 -7.37319
1 3.82598 -0.895146 -8.16533
1 -0.479403 4.80114 7.43452
1 -0.688834 5.15876 8.2549
1 -0.835775 6.08662 8.45341
1 -1.28709 6.72512 8.98451
1 -0.789213 7.11205 8.28362
1 -0.814624 6.88032 7.33167
1 -0.270187 6.43194 6.62141
1 -0.398365 5.94753 7.5473
1 -1.33315 5.6636 7.5265
1 -1.68207 4.80411 7.28984
1 -5.53188 2.77596 -1.23685
1 -6.47243 3.02115 -1.32722
1 -6.93052 3.66651 -1.93184
1 -7.14778 4.45674 -1.50346
1 -6.87254 4.91613 -2.26952
1 -6.76046 5.53126 -1.56399
1 -7.59608 5.36088 -1.09416
1 -7.77669 5.72866 -0.150956
1 -8.50862 6.28067 -0.0132333
1 -8.32812 6.65377 0.8725
1 4.6361 -0.77575 -5.42259
1 4.81309 -1.5873 -4.87886
1 4.7883 -2.04986 -3.97333
1 4.2808 -2.66448 -4.4303
1 3.62335 -1.95103 -4.29348
1 3.30831 -1.59349 -5.10563
1 3.39015 -0.635278 -5.23315
1 3.15826 -0.901619 -4.296
1 3.81993 -0.184724 -4.28846
1 4.34362 0.59943 -4.43839
1 -1.9832 -8.58401 1.64537
1 -2.18681 -9.08721 2.59087
1 -1.93643 -8.51969 3.32188
1 -1.33778 -8.54196 2.57831
1 -1.28232 -7.61628 2.24973
1 -2.10284 -7.75345 2.56647
1 -1.49076 -7.27771 3.16146
1 -0.652688 -6.841 2.74885
1 -0.718277 -6.41694 3.58091
1 -1.67622 -6.33129 3.41373
1 -5.31569 6.75817 -10.3171
1 -6.12981 6.77981 10.5514
1 -6.59956 7.57065 10.6096
1 -7.55967 7.66362 -10.5131
1 -7.49663 6.94682 10.3149
1 -7.1607 6.24924 9.70016
1 -7.58673 7.04606 9.27078
1 -8.48065 7.41658 9.42174
1 -8.55168 7.79005 10.3422
1 -8.84261 8.42808 -10.3908
1 7.58999 0.605315 -2.90182
1 6.8584 1.14421 -3.24902
1 6.37399 0.647702 -2.55749
1 7.01281 1.11042 -1.9412
1 6.71384 1.92894 -2.36528
1 6.38915 1.98414 -1.50699
1 6.62629 2.20124 -0.562423
1 6.85274 2.09758 0.414909
1 6.51214 1.20635 0.103246
1 6.30054 1.09261 -0.785664
1 7.94855 9.70685 7.71483
1 8.67216 9.99824 8.32618
1 8.47449 9.55822 9.14704
1 8.26826 8.85406 9.75866
1 8.54206 7.97569 9.57401
1 8.39494 8.18043 10.5697
1 8.32726 8.00332 -9.83867
1 7.47023 7.79968 -10.2974
1 6.44132 7.8472 -10.6104
1 6.62597 7.38474 9.94279
1 -9.36278 9.90679 8.40551
1 -9.96474 9.21427 8.15237
1 -10.6304 9.65704 8.52676
1 10.5414 9.8884 9.43106
1 -10.2908 10.599 9.06291
1 -9.51094 10.1636 9.39567
1 -9.98119 10.0855 10.2661
1 -9.8187 -10.3597 10.3525
1 10.5835 -10.2449 10.4774
1 10.3794 -10.0346 9.56206
1 -8.39179 10.2127 4.20546
1 -7.41941 10.2196 4.41732
1 -7.12704 -10.6217 5.12533
1 -6.67856 9.78453 5.26303
1 -6.8172 9.09638 4.60733
1 -6.3565 8.25879 4.49991
1 -6.48499 7.45749 4.00204
1 -7.27825 7.47385 4.58608
1 -8.14487 7.35035 5.05172
1 -8.54262 6.99402 5.88245
1 -8.58505 -2.72296 5.29522
1 -9.0552 -2.7759 4.45703
1 -8.1918 -3.16336 4.4097
1 -7.66783 -2.96797 3.60957
1 -7.26403 -2.15844 3.50055
1 -6.54161 -2.63565 3.91381
1 -6.31783 -2.89119 3.01305
1 -5.42369 -2.96248 3.37183
1 -5.00903 -3.83857 3.2761
1 -4.07475 -3.71308 3.39621
1 1.22034 -10.0582 8.68704
1 1.32855 -10.0664 9.60361
1 0.58673 -10.6163 9.22783
1 0.173693 10.1595 9.78021
1 0.028951 9.96382 8.88477
1 -0.779204 9.69346 9.42597
1 -1.16179 8.92209 9.80623
1 -1.58305 8.66161 8.97228
1 -1.15596 7.84031 9.00025
1 -0.769484 7.98289 9.89102
1 -10.0349 -0.22329 -4.39723
1 -9.79382 0.427454 -5.11056
1 -9.04564 0.819376 -5.61114
1 -8.39086 1.49095 -5.73685
1 -9.26193 1.84699 -5.68077
1 -9.3573 2.75977 -5.49026
1 -8.73291 2.59866 -6.11547
1 -8.41147 3.01206 -5.28963
1 -8.83668 3.88121 -5.10632
1 -9.30614 3.76942 -5.92408
1 6.77174 9.84318 -2.78707
1 6.80212 9.09602 -3.40287
1 5.88665 9.3165 -3.67825
1 5.25361 9.43617 -4.50233
1 4.75848 8.69988 -4.03109
1 3.9985 9.03115 -4.53847
1 3.3224 9.84895 -4.44924
1 3.25409 10.4054 -5.26344
1 2.36145 10.5572 -5.06891
1 1.38924 10.5499 -5.4194
1 6.89142 0.547794 -9.25963
1 7.84858 0.536461 -8.95629
1 7.94908 0.352877 -8.0174
1 6.92823 0.17407 -8.21797
1 7.21282 0.0563766 -7.34443
1 7.5242 -0.781098 -7.01986
1 7.79319 -0.857566 -7.91225
1 6.92012 -0.913892 -8.29836
1 6.34249 -1.61601 -8.74882
1 6.98177 -2.01328 -9.41043
1 9.27268 3.31862 -0.927013
1 8.72477 4.00362 -1.44676
1 9.18115 4.85279 -1.63882
1 9.79863 4.25753 -1.36824
1 10.466 3.81019 -0.819459
1 -10.3295 4.02226 -1.48297
1 -10.5897 3.57605 -2.33586
1 -9.69419 3.31542 -2.11863
1 -9.59475 2.48697 -1.60534
1 -10.1049 1.81946 -1.10085
1 3.42019 -1.37018 5.06621
1 3.29622 -2.08254 4.45508
1 2.46061 -1.78144 4.14881
1 3.04826 -0.999492 3.90644
1 2.19782 -1.17081 3.32675
1 1.39231 -0.603662 3.3091
1 1.99388 0.0174645 2.83933
1 1.69171 0.368863 3.66212
1 2.36321 -0.185872 3.92978
1 1.99206 -0.891301 4.53421
1 5.2035 10.2854 7.59647
1 4.82562 9.45108 7.37231
1 4.14833 9.69778 6.63744
1 3.72235 8.98399 6.17846
1 4.12231 8.59592 6.95837
1 3.81794 8.1353 7.73626
1 4.52627 8.08816 8.31917
1 5.16446 8.69345 8.06262
1 5.10218 7.94762 7.44676
1 5.61596 7.60319 6.72532
1 8.66488 8.79773 2.30909
1 8.06146 8.23125 2.74987
1 8.63393 7.48604 3.16839
1 7.70597 7.07142 3.14861
1 8.19803 6.35391 2.63642
1 7.9645 6.11226 3.50346
1 8.78643 5.91722 3.84454
1 9.14121 6.64298 3.33985
1 8.58282 6.93999 3.99393
1 9.23045 7.39208 4.56124
1 10.3517 -9.42795 2.78539
1 10.4514 -10.3864 3.05847
1 -10.1187 -9.96588 3.32375
1 -9.78344 -9.08277 3.63393
1 -9.61435 -8.17271 3.61794
1 -9.88056 -7.7733 4.48991
1 -10.5987 -8.40919 4.81809
1 -10.6368 -8.42622 3.85336
1 10.4041 -9.39093 3.85988
1 -10.1373 -9.66942 4.32904
1 -9.67084 10.3107 -2.72136
1 -9.04819 9.66216 -2.30706
1 -9.68321 9.40151 -1.56811
1 -8.90112 8.93094 -1.20737
1 -8.72628 7.97994 -1.05814
1 -9.60688 8.09317 -0.973835
1 -9.37204 8.63248 -0.122444
1 -9.64287 9.52464 -0.418576
1 -9.65176 10.3742 -0.804354
1 -10.1433 10.6437 -0.0145533
1 7.01106 -6.66704 -6.01929
1 7.61531 -7.39887 -6.32165
1 8.17327 -8.12582 -6.54606
1 9.07991 -8.2664 -6.87439
1 9.73918 -7.7283 -7.2414
1 9.10154 -7.86403 -7.95698
1 9.19798 -6.88793 -7.76904
1 9.61299 -6.34425 -8.58604
1 10.4268 -5.82949 -8.67061
1 10.6139 -6.49781 -9.31767
1 -7.64714 8.15398 -7.66528
1 -7.70957 8.33664 -8.64623
1 -8.49652 8.6164 -9.09807
1 -8.42115 7.71499 -9.54296
1 -9.30754 7.3572 -9.64374
1 -9.14222 7.1521 -8.73615
1 -8.46264 7.67142 -8.22761
1 -9.32563 8.04513 -8.15052
1 -9.40428 8.53563 -7.34405
1 -10.3481 8.51992 -7.39565
1 5.51253 10.1186 0.285833
1 4.63976 9.98864 -0.214242
1 4.63129 10.6761 0.408445
1 4.1262 -10.4417 -0.370046
1 3.74955 -10.4934 -1.22685
1 3.49048 -9.57422 -1.12435
1 2.91899 -10.1965 -0.666085
1 2.1094 -9.69769 -0.884261
1 1.93019 -9.13442 -1.59515
1 1.32123 -8.41724 -1.86104
1 -6.38197 3.92042 -5.67028
1 -5.64527 4.40069 -5.19477
1 -4.83636 3.94266 -5.34701
1 -3.85637 3.85561 -5.19414
1 -3.35598 3.49411 -4.4594
1 -3.28179 2.5772 -4.8377
1 -4.04585 2.06385 -5.02821
1 -3.44961 1.59131 -5.64849
1 -4.06581 1.92187 -6.3714
1 -4.79109 1.55006 -5.88916
1 -8.71206 -6.49426 -1.02126
1 -9.37323 -7.16274 -0.692321
1 -9.92572 -6.39453 -0.954671
1 -10.1376 -6.57204 0.0229719
1 10.5944 -5.84517 0.363466
1 10.0723 -6.6699 0.307257
1 10.1776 -6.63632 -0.725186
1 10.2332 -5.83605 -1.28812
1 10.5574 -5.87178 -2.12949
1 10.6789 -6.83681 -1.94754
1 -6.00093 6.75716 -8.71482
1 -6.12039 7.71988 -8.5213
1 -6.05032 7.46009 -7.59436
1 -6.89212 7.18165 -7.98312
1 -6.33466 6.35911 -7.87421
1 -6.50133 6.69359 -6.9613
1 -5.65366 6.33965 -6.9471
1 -5.1835 5.96887 -7.68415
1 -5.07377 6.94148 -7.80152
1 -4.28711 7.22531 -8.36269
1 -2.97658 -9.91644 5.20487
1 -2.12651 -9.60007 5.51178
1 -2.06483 -9.18299 4.6512
1 -2.36318 -9.45244 3.80839
1 -1.37429 -9.56614 4.0211
1 -0.71224 -8.90836 4.16761
1 -0.0259898 -9.56933 4.42332
1 0.752323 -10.0823 4.31962
1 1.01132 -9.10595 4.31495
1 1.00556 -8.72063 3.45332
1 8.50351 1.59935 2.4343
1 8.56866 1.98816 3.28585
1 7.58709 2.0923 3.3517
1 7.90732 2.93406 2.98427
1 7.97739 2.91711 3.9271
1 8.52561 2.30258 4.42775
1 7.5282 2.07932 4.61155
1 7.46503 1.10815 4.73043
1 8.30493 0.939458 5.22446
1 8.30519 0.391359 6.00027
1 3.70163 9.38366 5.05526
1 3.11402 10.2091 4.84533
1 3.45382 10.1961 3.98439
1 2.63346 -10.5767 4.02841
1 2.48442 9.94163 3.73191
1 2.92089 9.47087 2.9699
1 2.84183 8.69639 2.41013
1 2.13093 8.93119 1.78691
1 1.47737 9.52506 1.54618
1 1.28132 10.2952 1.00529
1 -5.99783 1.49684 1.99555
1 -6.42494 2.43924 1.97141
1 -7.34657 2.02565 1.78252
1 -6.92749 1.23617 1.39525
1 -7.20071 0.35769 1.60042
1 -8.176 0.750819 1.4124
1 -7.98644 0.297116 0.603544
1 -8.73235 -0.179199 0.799054
1 -8.8612 -0.818194 1.51249
1 -8.12696 -0.232859 1.64721
1 5.5237 -6.10612 7.23482
1 6.18294 -6.47594 7.92249
1 6.64846 -6.07138 8.68045
1 7.48002 -5.87248 9.09622
1 7.44166 -6.86878 9.15255
1 8.19219 -6.83661 9.70221
1 8.06008 -7.77662 9.38025
1 7.76029 -8.28599 10.1486
1 8.05989 -8.98635 9.56757
1 8.47616 -8.69564 8.74932
1 10.3517 -5.62424 -9.77981
1 10.1974 -6.20859 -10.5574
1 10.0584 -7.03244 -10.1698
1 9.58727 -6.27093 -9.7364
1 8.93147 -6.72166 -10.289
1 8.35187 -7.34203 10.5212
1 8.07775 -7.33564 -9.90466
1 7.85397 -6.42301 -9.84346
1 7.78888 -5.61927 -9.30683
1 7.6022 -4.99892 -9.97288
1 5.85979 -3.42313 10.2941
1 6.62528 -2.92588 10.5282
1 7.46477 -3.28878 10.3419
1 7.44704 -3.68951 -10.1743
1 8.0188 -3.53418 -9.42957
1 8.88637 -3.83602 -9.0549
1 8.20179 -4.43989 -9.04036
1 8.9104 -5.13525 -8.95466
1 9.34993 -4.70166 -9.70141
1 8.4895 -4.37355 -10.0989
1 1.80638 -3.11351 -5.96855
1 1.27599 -3.87434 -5.84414
1 0.485773 -3.73011 -5.34398
1 -0.157945 -4.47172 -5.15183
1 -1.0094 -4.07527 -5.212
1 -0.947428 -4.89752 -5.71335
1 -0.966621 -5.8548 -5.52012
1 -0.35909 -6.56637 -5.27884
1 0.578446 -6.51989 -5.01641
1 0.328515 -6.24167 -4.1199
1 6.20722 -8.33016 -4.08264
1 6.8215 -8.40718 -4.83387
1 7.20738 -9.25193 -5.10073
1 7.96848 -9.01915 -4.54512
1 8.46877 -8.21438 -4.64381
1 9.33868 -8.00889 -4.76143
1 9.88428 -8.78307 -4.74711
1 9.12336 -9.14277 -5.07819
1 8.71999 -9.84021 -5.63272
1 9.30814 -10.3122 -5.02314
1 7.42562 2.02644 -3.43038
1 6.93515 2.60819 -4.01154
1 7.10955 3.4962 -4.34892
1 7.1803 3.58543 -5.31266
1 8.00991 3.83025 -4.86614
1 8.11497 4.34486 -4.08814
1 8.69317 5.19708 -4.13521
1 8.04928 5.22105 -4.82979
1 7.05725 5.39545 -4.74126
1 7.18778 4.48093 -4.74847
1 8.8464 -4.79915 8.73011
1 9.80306 -4.53641 8.89705
1 10.4415 -5.21625 8.97016
1 -10.3465 -5.84234 8.5768
1 10.2314 -5.64722 8.0841
1 -10.3741 -5.37518 7.55626
1 -9.90842 -4.89178 8.3276
1 -9.94885 -5.16808 9.28493
1 -9.69256 -5.41419 10.2239
1 -10.6121 -5.57557 10.0946
1 2.18398 0.875446 1.89868
1 1.99409 1.80307 1.82398
1 1.74281 2.50717 2.43216
1 0.903441 2.45077 2.89585
1 0.56892 2.18626 3.75534
1 -0.300392 2.09118 3.39218
1 -0.0375204 2.85636 2.87729
1 -0.581698 3.12808 3.59423
1 -1.05185 3.43139 4.38742
1 -0.606419 2.7973 4.91096
1 7.87349 3.1859 8.38009
1 8.18893 2.70983 7.6434
1 9.07568 2.81019 7.99895
1 9.10231 3.38235 7.18504
1 9.68977 4.09539 7.6047
1 9.78657 3.99977 8.5242
1 8.95172 3.63277 8.70319
1 8.52879 4.45051 9.04205
1 8.205 4.24554 8.14855
1 7.67109 4.92386 8.53815
1 3.06862 7.54388 -2.08884
1 2.85639 6.93932 -2.78183
1 2.50646 6.09888 -3.03018
1 2.25046 5.96551 -3.90863
1 2.7982 5.51631 -4.71972
1 3.44687 5.37565 -4.02085
1 3.87623 4.86981 -4.67897
1 3.67305 5.45773 -5.36956
1 3.03988 5.21607 -5.99333
1 3.01634 5.08426 -7.00087
1 -0.221468 6.32463 9.28584
1 0.0344419 7.05927 9.76866
1 0.599667 7.82886 9.4788
1 0.287429 7.99358 10.3337
1 0.402623 8.85363 9.7283
1 0.845162 9.24364 9.01398
1 1.82099 9.24112 8.79054
1 1.44814 10.2035 9.00519
1 1.35754 10.2626 9.94975
1 0.978287 9.61518 10.5759
1 -1.65911 2.05857 5.15381
1 -1.01873 2.30884 5.81563
1 -0.602437 1.63679 5.31723
1 0.231235 1.21798 5.43068
1 -0.166355 1.76374 6.13724
1 -0.195496 1.06653 6.77731
1 -0.51588 1.91586 7.17986
1 0.488876 2.05714 7.18965
1 0.776049 1.35466 6.60658
1 1.43375 2.00571 6.32453
1 -8.49426 7.46889 -6.13433
1 -7.83066 6.83555 -6.10816
1 -7.18789 6.06883 -6.3381
1 -7.58399 5.32425 -5.92272
1 -8.22792 4.71868 -6.26077
1 -8.62014 4.18353 -6.93912
1 -9.00742 4.45132 -7.70628
1 -8.38568 5.26427 -8.11851
1 -7.94265 4.73348 -8.70284
1 -8.72799 4.32183 -9.06864
1 -7.29734 5.157 6.57339
1 -7.66391 5.47294 5.74301
1 -7.44781 6.15425 5.15232
1 -8.22709 6.0802 4.61604
1 -9.0156 6.59602 4.92971
1 -9.04819 7.47704 4.52368
1 -8.81377 8.30839 4.86605
1 -9.02486 9.1567 4.42517
1 -8.53598 9.44987 5.21502
1 -8.03377 10.2555 5.33187
1 6.52581 -7.77284 -0.49527
1 7.22697 -7.57243 -1.07981
1 7.1376 -6.6806 -1.24017
1 7.39104 -6.15143 -2.04223
1 6.95624 -6.93543 -2.43783
1 6.59154 -7.71824 -1.99914
1 6.10654 -6.95086 -1.52247
1 5.75516 -7.3503 -2.27841
1 6.08294 -7.22971 -3.13933
1 6.02265 -6.44027 -2.63855
1 -2.13591 -5.71967 4.51487
1 -1.94102 -6.66308 4.32985
1 -1.98804 -7.28501 4.98903
1 -2.22706 -8.23715 5.18091
1 -1.33223 -7.88786 5.48072
1 -0.596297 -7.53371 6.0021
1 -0.191208 -6.9945 6.6959
1 -0.103926 -7.07212 7.61794
1 0.502348 -7.64871 7.13882
1 0.483396 -7.56269 6.23053
1 2.69991 -1.89801 0.714476
1 1.97718 -2.16852 0.122102
1 2.07738 -1.26659 0.0625553
1 1.68353 -0.453212 0.378532
1 1.01323 -1.10218 0.452314
1 0.42872 -0.31759 0.441439
1 0.931804 -0.0417422 1.33474
1 0.839396 -1.02842 1.55373
1 0.906506 -0.68141 2.44415
1 1.74079 -1.14139 2.34105
1 9.6669 -0.89587 0.40913
1 9.03929 -0.198727 0.183221
1 8.92173 -0.0367621 1.06931
1 8.87636 -1.09333 1.30568
1 9.50702 -1.42089 1.95255
1 9.80464 -1.02966 2.80607
1 -10.6404 -0.672447 2.53493
1 -9.95947 -1.22338 3.01808
1 -9.92346 -2.1388 2.61451
1 -10.0023 -2.93134 2.04363
1 3.67741 -0.233423 -2.89973
1 4.22657 0.472118 -3.38019
1 4.86598 1.09308 -3.64763
1 4.95379 1.85054 -4.24803
1 3.98317 1.8184 -4.46111
1 4.20405 1.95693 -3.51293
1 3.52035 1.28227 -3.08147
1 2.89236 1.80189 -2.54159
1 3.19972 2.71833 -2.87384
1 2.56186 3.41417 -2.57582
1 9.17736 -1.38707 3.97947
1 9.25577 -1.46784 4.92402
1 9.02928 -0.59432 4.98799
1 9.68768 -0.54602 4.33064
1 9.5312 0.344571 4.48955
1 9.09542 1.19784 4.51158
1 8.69295 0.533193 3.97857
1 8.64386 0.897611 3.12834
1 9.53317 1.1611 3.27228
1 9.512 0.281397 2.81565
1 9.04873 -6.22329 8.21764
1 9.60994 -6.50535 7.47807
1 8.7972 -7.0236 7.54208
1 9.58399 -7.36405 6.9898
1 10.289 -6.93031 6.49194
1 10.5412 -5.93353 6.49611
1 10.4211 -6.42478 5.62697
1 -10.1049 -6.14275 5.81382
1 -9.3106 -6.61781 5.34237
1 -9.92321 -6.58 4.54631
1 -2.40542 -6.15065 7.36964
1 -2.64295 -5.16375 7.1077
1 -3.31123 -5.62755 7.77701
1 -2.6766 -5.26682 8.43513
1 -2.34345 -5.77725 9.26785
1 -1.39196 -5.98547 9.1218
1 -1.21514 -5.8319 10.0268
1 -1.59717 -6.56808 10.5531
1 -2.48874 -6.31239 10.2127
1 -2.82599 -7.20637 10.2837
1 4.11438 -0.486161 -6.31433
1 4.00227 -1.41696 -5.95933
1 3.99987 -1.5192 -7.01536
1 3.15478 -1.28113 -7.40548
1 2.30401 -0.994165 -7.27157
1 1.43339 -1.02028 -7.63876
1 1.68508 -0.314556 -8.20251
1 0.882382 0.274674 -8.32999
1 0.951808 1.25675 -8.45449
1 1.86316 1.21014 -8.20115
1 -5.05538 -6.71331 1.1876
1 -4.17252 -6.97717 1.59521
1 -3.63652 -6.37931 1.09317
1 -3.40463 -5.4828 0.701609