8000
Atoms. Timestep: 0
1 1.80814 8.55281 -3.92025
1 2.37881 8.64319 -4.6938
1 1.55815 8.80293 -5.16997
1 0.646846 8.79819 -5.4387
1 0.872933 7.9177 -5.61059
1 1.12838 7.20612 -5.03503
1 1.08229 8.01587 -4.52836
1 0.479555 8.7148 -4.3728
1 -0.007426 8.02 -4.82955
1 -0.153978 7.88973 -3.89154
1 -0.167963 6.97937 -3.59368
1 0.301351 7.46463 -2.93302
1 0.512695 8.23109 -2.38304
1 1.33349 8.30733 -1.8453
1 1.41392 7.93646 -0.973725
1 1.16135 8.80913 -0.615972
1 0.583342 8.24321 -0.162003
1 0.524207 7.40105 -0.63242
1 -0.240351 7.85999 -0.951422
1 0.40496 8.44303 -1.3588
1 7.20559 -9.1493 -6.88552
1 6.5307 -8.49978 -7.18245
1 5.85105 -8.62744 -6.49423
1 5.75717 -7.81373 -6.95501
1 5.80075 -6.93642 -7.39923
1 5.98895 -7.70006 -8.01995
1 5.71035 -8.58867 -7.8574
1 4.88976 -8.58921 -7.39066
1 5.00285 -9.29913 -6.74338
1 4.61424 9.87236 -6.94189
1 3.90798 -9.77543 -7.48938
1 3.86118 -9.97015 -8.43091
1 4.48788 -9.28923 -8.25613
1 4.30102 -9.18185 -9.20384
1 3.45882 -8.74903 -8.95416
1 3.66836 -8.43582 -9.81859
1 3.3815 -7.70309 9.68606
1 2.59562 -7.15028 9.5839
1 1.74542 -6.71918 9.46406
1 1.31844 -5.91585 9.2396
1 1.99622 -7.26408 -4.45267
1 2.4031 -7.61766 -3.60335
1 1.66819 -7.84991 -3.04727
1 0.904815 -7.29202 -3.13395
1 0.839502 -6.3448 -3.26692
1 0.661299 -6.56967 -2.35134
1 -0.010402 -7.1764 -2.01924
1 0.081898 -7.92185 -2.62722
1 -0.192165 -7.12321 -3.08694
1 -0.011683 -7.74751 -3.8048
1 1.83754 -5.09141 8.91292
1 2.1546 -5.31173 8.03477
1 1.21141 -5.52862 8.11495
1 1.52938 -6.44032 8.30845
1 1.74174 -6.63636 7.41346
1 1.80707 -5.72047 7.083
1 2.01675 -6.35087 6.37585
1 1.10894 -6.68243 6.54167
1 0.706827 -6.49307 7.44063
1 0.625884 -7.26276 8.03408
1 0.981229 -7.57857 7.22691
1 0.698759 -7.92596 6.36894
1 1.39382 -8.41403 5.96978
1 2.23683 -8.90342 6.07696
1 2.38287 -8.07563 5.63467
1 2.94533 -7.31758 5.80489
1 3.37152 -7.92218 5.17495
1 3.62494 -7.48604 4.36415
1 3.32096 -6.82103 4.95771
1 3.33473 -6.37329 4.11533
1 0.815584 8.79986 7.84595
1 0.902942 9.52187 7.22643
1 0.587226 -9.75086 6.71685
1 0.506359 -9.11319 6.01882
1 -0.395888 -8.84333 5.85168
1 -0.347698 -8.26572 6.62986
1 -0.039817 -7.81376 7.40395
1 -0.029904 -7.11704 6.73428
1 -0.264969 -6.77852 7.62087
1 -0.361918 -7.19762 8.49058
1 0.272056 -7.70791 8.94273
1 0.685621 -6.85729 9.14674
1 0.371814 -6.31177 8.45091
1 0.281031 -5.71898 9.18283
1 0.825993 -4.93947 9.15784
1 0.89386 -4.4161 9.9692
1 1.69805 -4.48644 -9.47113
1 2.27121 -4.64154 9.80344
1 1.94323 -5.52093 9.98003
1 2.56153 -5.2052 -9.34134
1 0.778466 -5.35863 4.03928
1 0.550716 -6.27059 3.90831
1 1.18579 -6.05439 3.24349
1 1.44939 -6.91637 3.54155
1 1.32099 -7.02404 4.49584
1 0.853947 -7.78587 4.22891
1 1.50165 -8.05972 4.89262
1 0.649514 -8.14752 5.29046
1 0.457939 -7.23638 5.39336
1 -0.254774 -7.8223 5.72039
1 -0.363924 -8.06267 4.82485
1 -0.084595 -7.2431 4.42858
1 -0.325001 -7.83028 3.72042
1 0.391833 -7.23017 3.44228
1 -0.411099 -6.71652 3.52947
1 -0.608472 -7.3802 2.85437
1 0.152766 -7.59544 2.31755
1 -0.218306 -6.79197 1.89647
1 0.22244 -6.53894 2.73512
1 -0.683942 -6.23874 2.6531
1 -2.38363 -5.30267 1.33326
1 -1.6964 -5.20764 2.03131
1 -1.96514 -6.10993 1.98711
1 -1.99935 -5.80259 2.90649
1 -1.3346 -5.61995 3.58958
1 -1.75427 -4.94791 4.17255
1 -1.25101 -5.4981 4.76987
1 -0.614426 -6.14126 4.48833
1 -0.453258 -6.58358 5.31429
1 0.202572 -6.26201 5.93048
1 0.616823 -5.6678 6.5136
1 1.39298 -5.22017 6.18397
1 2.06785 -5.58424 5.60799
1 1.26796 -6.12426 5.60689
1 0.539482 -6.06751 4.95064
1 0.564511 -5.31953 5.54459
1 -0.388218 -5.32952 5.33315
1 -0.88689 -5.87319 6.01217
1 -1.71935 -5.3755 5.85147
1 -1.18904 -4.6089 5.96949
1 6.75591 -0.749152 -8.24371
1 5.99836 -1.15695 -7.80119
1 6.61872 -1.78398 -8.23619
1 6.69357 -2.37567 -7.4634
1 5.79208 -2.15827 -7.65044
1 5.24748 -2.36689 -6.9073
1 5.2548 -2.01991 -6.02053
1 4.34954 -1.93665 -6.43647
1 3.76172 -2.22169 -7.12637
1 3.05454 -2.36372 -7.74511
1 2.83262 -3.23913 -8.07894
1 2.93091 -2.93914 -9.00208
1 3.6165 -3.47892 -9.43389
1 2.97737 -3.11169 9.91821
1 2.98839 -3.92806 9.44994
1 2.20815 -4.06562 8.94508
1 1.29169 -3.77501 9.01173
1 1.28749 -4.43087 8.31157
1 0.406691 -4.75245 8.19501
1 0.214237 -4.03393 8.7764
1 1.2796 -1.4932 7.17279
1 1.52778 -1.53465 6.26719
1 1.4457 -2.41646 6.54741
1 0.554072 -2.50527 6.21749
1 0.297717 -2.1482 7.07066
1 1.01877 -2.59742 7.48586
1 0.74905 -1.88029 8.06448
1 0.99545 -1.80945 9.01819
1 0.372525 -1.50006 9.68365
1 1.28428 -1.36478 9.96188
1 1.67275 -1.86286 -9.3094
1 1.16158 -2.53575 -8.90414
1 0.461036 -2.63065 -8.24279
1 1.2179 -2.22488 -7.77069
1 1.18179 -1.49663 -8.40467
1 1.54761 -0.763861 -8.91297
1 1.37991 -0.312618 -9.75661
1 1.92229 0.456856 -9.46675
1 2.44983 -0.32955 -9.23872
1 2.89166 0.051351 9.99556
1 -1.41082 -3.89839 -7.06179
1 -1.6789 -3.07779 -6.62886
1 -1.03109 -2.7846 -7.26697
1 -0.713129 -1.93622 -7.57348
1 -0.294329 -1.84726 -8.46748
1 -0.522667 -1.3596 -9.24124
1 -0.723729 -0.568727 -8.64353
1 -0.236294 0.04639 -9.24559
1 -0.646479 -0.463611 -9.94756
1 -0.540421 -0.572912 9.09299
1 -0.45138 0.23654 8.60591
1 -0.398955 -0.435452 7.949
1 -0.307708 -1.39561 7.98548
1 -1.0989 -1.14467 7.52848
1 -0.782426 -1.98479 7.21527
1 -0.271257 -1.23518 6.93388
1 0.445408 -1.16422 6.30325
1 1.01154 -0.453517 6.48829
1 1.67075 0.166042 6.78179
1 1.9736 -0.676482 7.15257
1 -1.78666 4.48577 5.94908
1 -1.06671 3.89985 5.67295
1 -0.630837 3.07229 5.85021
1 -0.875019 2.28884 5.34205
1 -0.868074 2.55709 4.44335
1 -0.071941 2.17909 4.14644
1 -0.091107 1.6824 5.00057
1 0.104022 1.00064 4.35974
1 -0.451942 0.395986 4.897
1 -1.07587 1.15714 4.9142
1 -1.18118 1.34178 5.84579
1 -0.607399 1.56863 6.54687
1 -0.19928 1.70069 7.39361
1 0.486093 1.51415 6.7739
1 0.656744 0.606426 6.52579
1 0.138615 1.0668 5.85656
1 0.827752 1.10786 5.20842
1 1.24278 0.311394 5.64681
1 1.54762 1.07483 6.10135
1 2.36841 1.03286 6.57314
1 1.23193 3.80463 3.07648
1 1.26436 2.88285 2.75031
1 0.528468 3.36767 2.43064
1 0.131713 3.873 3.17732
1 -0.543464 3.32679 2.75145
1 -1.38615 2.92439 2.58421
1 -0.935609 2.17211 2.13314
1 -0.401522 1.53739 1.6652
1 0.139426 0.732906 1.47014
1 0.191975 -0.001656 2.08209
1 -0.439699 -0.740346 2.19752
1 0.027536 -0.66929 3.04099
1 -0.010728 0.317554 3.09204
1 0.500117 -0.103298 3.75764
1 0.107676 -0.914057 4.11525
1 -0.751056 -1.29303 3.87781
1 -0.333435 -1.90974 4.43968
1 0.148011 -1.98536 3.62734
1 -0.034193 -2.8504 4.01787
1 0.79799 -3.32359 4.03688
1 0.712948 -3.09054 1.21307
1 1.60111 -3.42469 0.997712
1 1.96107 -2.89945 0.304423
1 2.54418 -2.90288 1.04969
1 2.18997 -2.52273 1.89486
1 2.74063 -1.85242 1.49457
1 2.36499 -0.958515 1.45945
1 2.17155 -0.035843 1.75487
1 2.28186 0.220863 2.71666
1 2.18265 0.970248 2.14708
1 1.96165 1.01897 1.18885
1 2.68914 1.48406 0.76986
1 2.66727 2.41576 1.02701
1 2.08792 1.95944 1.63845
1 1.56529 1.8252 2.46595
1 1.81385 2.14079 3.34344
1 2.57171 1.61871 3.05413
1 3.43991 1.46139 3.4965
1 3.63426 0.852845 4.22298
1 2.73478 0.807168 3.85131
1 2.6317 -0.442131 -2.46509
1 2.1056 -0.921566 -1.85842
1 2.05501 -1.78154 -1.41635
1 1.11909 -1.91936 -1.63895
1 1.53637 -2.72898 -1.89756
1 0.602797 -2.80839 -1.66209
1 0.477977 -3.71217 -1.89441
1 0.915942 -4.39452 -1.39158
1 1.26017 -3.55795 -1.13052
1 1.65722 -2.74622 -0.779197
1 2.61573 -2.81932 -0.790183
1 2.35129 -3.48019 -1.45742
1 1.97513 -4.32577 -1.10468
1 2.00909 -3.68011 -0.3987
1 2.18961 -4.58376 -0.169663
1 1.50811 -4.4754 0.528426
1 1.12824 -4.34883 -0.359051
1 1.41051 -5.18844 -0.760979
1 0.945732 -6.04228 -0.658091
1 0.280708 -6.47347 -0.079911
1 -2.12218 1.55985 -8.30358
1 -1.74534 1.23692 -7.49566
1 -1.01754 1.72863 -7.16492
1 -0.728168 1.41092 -6.32591
1 -0.162299 0.644661 -6.46979
1 0.808198 0.731663 -6.44098
1 0.50602 0.613592 -7.36304
1 0.875624 1.0459 -8.11873
1 1.62265 0.867557 -7.56008
1 1.9491 0.842062 -6.67854
1 2.62753 1.4807 -6.45356
1 3.37744 1.97195 -6.14195
1 2.92895 1.72794 -5.32372
1 2.66515 1.99909 -4.4213
1 1.9303 1.51602 -4.83826
1 0.999353 1.36348 -4.82675
1 0.505445 0.791635 -5.38584
1 -0.443108 0.846128 -5.47116
1 -1.22621 0.449366 -5.8846
1 -1.19742 0.479059 -6.85199
1 2.88773 0.919591 -4.63677
1 2.60223 1.17151 -3.77547
1 3.47907 1.51916 -3.64678
1 3.70458 1.73697 -4.53844
1 4.10543 1.77202 -5.43224
1 4.81672 1.72875 -4.77625
1 4.35171 2.59169 -4.70887
1 3.48335 2.64766 -5.12089
1 2.66113 3.16817 -4.83753
1 2.12396 2.47438 -5.26527
1 2.76282 2.85682 -5.8858
1 3.3085 3.61219 -5.68718
1 3.93972 3.86997 -6.33034
1 3.33405 4.09515 -7.03383
1 2.81128 3.98963 -7.84472
1 3.60403 4.31833 -8.28394
1 2.94238 4.90792 -8.62454
1 2.41604 4.44211 -9.31534
1 1.96084 4.41825 -8.45978
1 1.97239 5.26739 -8.04958
1 0.935953 6.66915 -3.16109
1 0.391258 6.58776 -2.35449
1 1.29654 6.33795 -2.22499
1 1.63064 5.43216 -2.10547
1 1.96709 5.74012 -1.26282
1 1.47633 5.60388 -0.467442
1 0.911209 5.58122 0.306034
1 0.442112 5.38438 -0.492849
1 -0.01822 4.97687 0.249817
1 -0.121644 4.18083 0.77789
1 0.762818 4.51899 0.875296
1 1.06901 4.56875 -0.029004
1 1.832 4.96883 0.387568
1 2.13169 4.15393 7.8e-05
1 3.03624 4.24877 -0.272626
1 3.33171 3.45832 0.201474
1 3.28921 2.47199 0.148675
1 3.68422 2.50522 -0.754581
1 4.22935 2.12706 -1.43082
1 4.97266 2.36558 -0.843704
1 1.39889 5.38247 3.71616
1 2.02917 5.95865 3.28233
1 2.24394 6.65219 2.65585
1 1.32334 6.66147 2.9782
1 1.10827 6.71476 2.03869
1 1.61157 7.53085 1.92235
1 1.41901 8.30758 1.34862
1 1.18478 8.85191 0.585154
1 1.92655 9.13791 0.047371
1 2.15015 9.21295 0.969801
1 1.44416 9.32547 1.65578
1 0.509159 9.52904 1.54947
1 0.286992 -9.62776 1.16827
1 1.11791 -9.25543 1.42583
1 0.490572 -8.60574 1.76413
1 -0.362486 -8.75621 1.33581
1 -0.299711 -8.92193 0.401291
1 0.494562 -8.46896 0.672796
1 1.27975 -8.17042 1.14901
1 1.21194 -7.92585 2.09252
1 -0.925002 7.9321 4.2146
1 -0.468573 8.27391 5.01808
1 -0.207968 8.16532 5.98092
1 -0.232909 7.22225 6.18212
1 0.143234 6.49667 6.74113
1 0.989942 5.98438 6.68901
1 1.13211 5.02481 6.63443
1 1.09376 4.60459 5.77669
1 1.32153 4.7728 4.83441
1 2.11116 4.3055 5.09787
1 2.34093 3.3829 4.94701
1 3.16193 3.86203 5.01027
1 3.94557 3.43051 5.40229
1 4.03252 4.38501 5.38732
1 3.55856 4.90273 4.65925
1 4.05572 5.72775 4.62913
1 3.51224 5.94456 5.40702
1 2.89787 6.12275 4.68835
1 2.41596 5.30545 4.44656
1 1.83011 6.072 4.53644
1 4.59784 7.92582 -9.71594
1 4.25551 8.70888 9.85178
1 4.72167 9.08449 -9.38119
1 5.17241 9.33878 9.79559
1 5.56219 8.48326 -9.98653
1 5.60698 8.62909 9.06069
1 4.76463 9.02345 8.84433
1 4.45102 9.56933 8.16778
1 4.03252 -9.59703 8.50413
1 3.29476 -9.52455 9.08147
1 2.39374 -9.3198 8.67017
1 2.41448 -9.6794 7.77262
1 2.77578 -9.22168 7.02425
1 2.69966 9.89524 6.66256
1 3.07158 9.32457 7.33306
1 3.09835 8.74401 8.10198
1 3.22751 9.65439 8.34942
1 2.38822 9.59516 8.73065
1 1.5824 -9.98615 9.0142
1 1.35028 9.79822 8.14304
1 3.53574 8.20568 7.20664
1 4.19631 8.18021 6.53703
1 3.62586 7.53932 6.10079
1 3.62764 7.10144 6.94489
1 2.81734 7.54563 6.74337
1 2.47258 8.00417 7.52229
1 2.53602 8.57795 6.76064
1 3.29021 8.53305 6.17473
1 2.65602 8.03653 5.68449
1 2.09059 7.30463 5.89769
1 1.72967 7.51913 6.74078
1 1.97322 6.59451 6.67877
1 2.11278 7.01352 7.54118
1 1.16303 6.86496 7.31086
1 1.2232 6.92701 8.2451
1 0.685868 6.55869 8.91333
1 0.556206 5.65775 9.19603
1 1.3417 5.45497 9.73076
1 1.40784 6.21249 -9.71747
1 0.758721 6.66551 -9.17783
1 -0.011396 3.11767 4.90584
1 0.633376 3.13697 4.20348
1 1.02412 3.6798 4.93868
1 1.59289 3.58358 4.17926
1 2.22229 3.26082 3.53411
1 3.11672 3.42379 3.83273
1 2.8048 4.3232 4.05531
1 1.95244 4.41204 3.67995
1 1.85452 4.82343 2.82036
1 2.72982 5.01961 3.18604
1 3.2593 5.66518 3.68672
1 2.93247 6.55859 3.64392
1 2.0341 6.87442 3.84108
1 2.47069 7.64383 3.52655
1 1.55578 7.63804 3.1955
1 0.803618 8.2503 3.32004
1 0.694164 7.64471 2.60833
1 -0.216801 7.3419 2.43424
1 -1.08304 7.39386 2.85562
1 -1.01329 6.84316 3.63235
1 3.81134 9.36655 -1.92402
1 4.17289 8.59563 -1.47927
1 3.29396 8.33949 -1.21503
1 2.54813 8.71398 -0.704523
1 2.44436 7.76197 -0.566226
1 2.5663 7.34338 0.287071
1 3.22006 7.61373 0.952814
1 2.43699 7.97498 1.33184
1 2.28313 8.69989 1.96302
1 1.58199 8.44237 2.57031
1 0.68417 8.61365 2.25955
1 -0.161586 8.63119 1.81446
1 -0.954827 8.13252 2.11436
1 -0.664315 7.68905 1.33907
1 -0.748957 8.56732 0.930472
1 -1.31506 8.98831 1.57539
1 -0.512319 9.51213 1.3953
1 -0.840607 -9.68664 1.01085
1 -1.76775 -9.74866 0.995297
1 -2.29767 9.47656 0.895888
1 3.14846 6.03363 2.55157
1 3.94033 6.21887 3.07448
1 4.26753 6.72296 2.33067
1 3.70494 7.2559 1.80049
1 2.82098 6.95528 1.75073
1 1.97826 6.78074 1.32228
1 1.95719 6.31097 0.481205
1 2.50042 6.41485 -0.324334
1 2.13324 6.88262 -1.05034
1 1.85241 7.12935 -1.92354
1 2.40857 7.87464 -1.67676
1 2.8495 7.37915 -2.43809
1 3.55381 6.75579 -2.21711
1 3.86962 7.67492 -2.10113
1 3.30416 8.45542 -2.24338
1 3.30805 8.14543 -3.14298
1 2.35617 8.1797 -2.9751
1 2.23855 8.79443 -2.26868
1 2.86843 9.47216 -2.53265
1 3.728 9.35634 -2.97459
1 3.17229 5.07387 -7.55322
1 2.38281 4.67553 -7.15
1 2.55658 4.25743 -6.26962
1 1.65656 4.03449 -6.56301
1 1.66444 4.98901 -6.42106
1 1.53251 5.66385 -7.07686
1 2.42687 6.00309 -7.27999
1 3.09061 5.6451 -6.68745
1 3.35004 5.70671 -5.7452
1 3.49757 4.81806 -6.08357
1 2.98118 4.55096 -5.30027
1 3.90677 4.3702 -5.09446
1 3.6505 3.65063 -4.52188
1 3.31462 4.4696 -4.16977
1 2.84873 5.22213 -3.84135
1 2.5278 5.30797 -2.9096
1 1.80454 4.63861 -2.75473
1 1.8504 4.89859 -3.63537
1 1.11829 4.24706 -3.49336
1 0.964413 3.34088 -3.79986
1 0.424465 -1.46427 -7.59513
1 1.2641 -1.07418 -7.30473
1 1.20847 -0.337556 -7.92007
1 1.81899 0.183729 -8.45381
1 1.94619 1.12924 -8.5073
1 2.76751 0.896926 -8.94421
1 2.31438 1.61266 -9.36811
1 1.88439 2.24882 -8.82095
1 1.28271 2.83295 -9.27888
1 0.831074 3.40275 -9.8785
1 1.40443 4.02369 -9.37997
1 1.68258 4.38173 9.7606
1 2.6186 4.53387 9.62808
1 2.36264 3.92835 8.937
1 2.65627 4.43627 8.18393
1 1.87233 4.85766 7.85528
1 1.85336 4.94799 8.79028
1 1.38282 5.73177 8.54187
1 1.77298 6.01725 7.69144
1 1.99859 5.50617 6.93197
1 3.34551 -2.06181 -5.14868
1 3.64657 -1.365 -4.5251
1 3.87732 -0.668381 -3.86417
1 3.63668 -0.342226 -2.98499
1 4.21524 -0.250021 -2.21409
1 3.50269 -0.787925 -1.83847
1 3.55458 -0.23092 -1.074
1 3.97444 0.614769 -0.904751
1 4.51851 1.37165 -0.731544
1 4.39371 1.90726 0.080582
1 4.77461 1.32086 0.714394
1 5.25967 1.97297 1.21444
1 5.78408 2.66956 1.58275
1 4.9097 2.87588 1.85472
1 4.59926 3.6896 1.51189
1 3.92462 3.3449 2.07176
1 3.12942 2.88174 1.85474
1 3.64583 2.91574 1.06145
1 4.50369 2.58111 0.905358
1 4.39445 2.98802 0.048431
1 0.219678 2.78879 3.34497
1 0.02716 2.40408 2.50812
1 0.179342 2.51969 1.59752
1 1.11687 2.43892 1.6267
1 1.86239 3.04239 1.82109
1 2.38954 2.60551 2.54149
1 3.13555 3.0994 2.87788
1 3.35279 2.17524 2.68207
1 3.12706 1.79158 1.81125
1 3.65951 1.65054 1.03507
1 4.16928 1.02366 1.51425
1 5.04072 1.1343 1.85997
1 5.16336 1.0355 2.83429
1 5.90374 0.617483 2.33434
1 5.97568 0.547829 3.31251
1 5.52684 0.250767 4.12165
1 4.97475 -0.425776 4.45678
1 4.66851 0.499045 4.70342
1 5.42283 1.01402 5.02963
1 5.39539 1.34483 4.12786
1 5.45526 1.24267 -0.071871
1 6.11812 1.64861 0.578284
1 5.72728 0.918858 1.05707
1 5.83635 -0.038964 1.335
1 5.08143 -0.620027 1.50141
1 5.05974 0.064586 2.15044
1 4.2864 0.525276 2.47792
1 4.22088 1.45903 2.47844
1 4.09474 2.2135 1.88861
1 4.36157 2.59544 2.71544
1 4.07961 3.29702 3.28813
1 3.87174 2.4737 3.70034
1 2.89413 2.38197 3.77362
1 2.34639 1.75206 4.17581
1 1.7297 2.49437 4.31179
1 0.883894 2.26912 4.6895
1 1.14272 1.49089 4.19713
1 0.719817 0.924187 3.5319
1 0.685175 1.86956 3.34001
1 -0.169387 1.44692 3.30658
1 -0.022488 1.00247 -8.75256
1 -0.616982 1.04799 -9.50977
1 0.191979 1.54131 -9.72663
1 0.375199 1.4931 9.33045
1 0.835693 0.656695 9.08893
1 1.66301 0.413338 9.46794
1 1.773 1.32149 9.78765
1 2.66471 1.02504 9.75555
1 3.20398 1.46326 9.08417
1 2.9374 1.2663 8.1819
1 2.54586 1.74124 7.37979
1 2.8415 2.24912 6.63312
1 2.17042 1.99769 5.95941
1 1.75099 1.76918 5.12512
1 2.51838 2.31781 4.98176
1 3.26276 2.7929 4.66424
1 3.46845 1.8588 4.61842
1 4.36516 1.62713 4.46597
1 4.3363 2.58567 4.64038
1 4.10124 3.50151 4.38908
1 4.16885 -1.13247 4.56195
1 3.26036 -0.853063 4.57702
1 2.739 -0.696402 5.38163
1 2.03962 -0.469642 5.993
1 2.68439 -1.0415 6.37062
1 2.84401 -0.176952 6.77652
1 2.9748 -0.859614 7.47346
1 2.92206 -0.824509 8.41352
1 2.06354 -0.519304 8.15617
1 1.27472 -0.994585 8.09034
1 0.468971 -0.896015 7.54142
1 0.976122 -0.051986 7.48307
1 1.37552 0.209807 8.30355
1 0.496369 -0.148009 8.40729
1 0.374338 -1.06517 8.69885
1 1.15099 -0.662164 9.09
1 0.37378 -0.305383 9.55225
1 -0.088916 0.523685 9.74757
1 0.772742 0.595722 -9.84404
1 0.800921 0.201822 -8.95657
1 0.491696 2.64047 9.4265
1 1.07503 2.10158 9.97907
1 1.96588 2.36976 9.93594
1 2.25083 1.94543 9.08956
1 1.94914 1.12089 8.71693
1 2.46356 0.287799 8.74001
1 2.19619 -0.474516 9.24295
1 2.00512 -1.36692 8.98155
1 2.20789 -2.08432 9.54419
1 1.54358 -2.72553 9.26209
1 1.75974 -2.25143 8.44053
1 2.28873 -1.63874 7.90911
1 2.34982 -1.99991 6.99932
1 2.5597 -2.04073 6.06607
1 2.68088 -1.72057 5.20073
1 1.83356 -1.30565 5.23203
1 1.08202 -0.743813 5.45852
1 0.471566 -0.275436 4.9153
1 1.04133 0.343883 4.4909
1 1.86559 0.830624 4.60383
1 -0.467801 -1.90397 6.0099
1 -0.499431 -2.76894 6.40889
1 -0.275341 -3.22455 7.1776
1 -0.430033 -3.93897 6.50644
1 -0.298367 -4.89996 6.54714
1 0.183482 -4.43293 7.22953
1 0.675565 -4.39073 6.41527
1 0.976533 -4.25669 5.52897
1 1.8986 -4.33354 5.75092
1 2.65372 -4.66924 5.1947
1 3.06687 -4.34581 6.00047
1 3.34047 -3.76846 5.2515
1 3.55803 -3.16348 4.51233
1 2.81577 -2.78654 4.97821
1 2.32532 -3.45377 5.44777
1 2.51348 -3.75021 4.54977
1 1.57099 -3.9104 4.66333
1 1.55011 -4.8631 4.73597
1 2.35831 -4.88797 4.18867
1 2.67311 -5.67731 4.70025
1 1.52917 -5.05663 3.31168
1 1.0411 -4.39031 3.78957
1 0.85536 -3.90267 2.95689
1 0.507509 -3.51642 2.11848
1 0.29161 -4.44196 2.15983
1 -0.285971 -3.93133 2.70838
1 0.067604 -3.93509 3.5664
1 0.262164 -4.82908 3.22229
1 -0.203872 -5.63904 3.40421
1 -0.737475 -5.11454 2.78638
1 -0.810523 -4.57148 3.58731
1 -0.367435 -5.05366 4.30187
1 0.298523 -4.42481 4.62716
1 -0.130276 -4.3308 5.48798
1 0.276647 -3.53419 5.89986
1 0.332443 -3.47444 4.95143
1 -0.188786 -2.71659 5.21903
1 -0.94371 -2.84899 4.6208
1 -0.625008 -3.73764 4.42717
1 -0.970054 -4.48641 4.91638
1 0.509755 -8.78668 -0.420242
1 0.793101 -9.45774 0.181429
1 1.28427 9.86408 0.606851
1 2.13444 -9.77109 0.266423
1 2.09206 -9.74638 1.20723
1 2.7117 -9.05706 0.918556
1 2.04212 -8.77278 1.56947
1 2.14685 -8.5026 2.45842
1 1.9456 -7.62665 2.76607
1 2.11538 -7.46509 1.85822
1 2.88582 -8.01479 1.81354
1 2.98547 -7.37433 2.5416
1 3.75463 -6.9577 2.19433
1 4.6432 -7.24538 1.9599
1 5.34848 -6.83533 2.47857
1 5.98644 -6.15106 2.17565
1 5.45944 -5.46006 2.61032
1 6.06192 -5.4208 3.38498
1 6.22462 -5.82228 4.1986
1 6.79546 -5.462 4.88357
1 5.29894 -6.33185 6.21758
1 5.21532 -6.85666 5.423
1 4.50295 -6.83018 4.80996
1 4.44846 -6.89182 3.88667
1 4.50057 -7.32515 3.01367
1 3.62526 -6.98252 3.24202
1 3.50471 -7.92908 3.40546
1 2.76316 -7.44179 3.70425
1 1.87592 -7.81241 3.91009
1 1.98971 -8.68617 3.57881
1 1.26009 -8.86256 4.20047
1 0.326462 -8.75058 3.98341
1 0.176563 -9.10294 4.88143
1 -0.720439 -9.04319 4.5244
1 -1.59717 -9.15062 4.79914
1 -1.19648 -8.44869 5.28595
1 -1.3425 -8.16253 4.36182
1 -1.15274 -7.23125 4.21857
1 -1.19726 -7.38996 5.12722
1 -1.04412 -7.22476 6.05656
1 2.53179 9.18919 5.77393
1 2.66541 9.57884 4.93517
1 1.84712 9.98252 5.20766
1 1.37279 9.12725 5.26475
1 0.467775 8.74201 5.33272
1 0.426869 9.32534 4.5263
1 1.01678 -9.97466 4.25799
1 1.88792 9.57247 4.1975
1 2.35232 -9.57492 4.18392
1 3.01325 -8.98621 3.82105
1 3.71069 -8.58577 4.36869
1 4.42807 -8.21848 4.8689
1 4.46324 -7.93166 3.96565
1 5.35009 -8.25298 3.69896
1 5.43408 -7.29387 3.66386
1 5.22347 -7.5045 4.58945
1 6.03416 -7.0614 4.94256
1 6.05133 -6.23691 5.42722
1 6.7605 -5.79218 5.94062
1 7.31073 -6.52737 6.24921
1 5.93383 -5.48186 9.6156
1 5.19426 -6.0786 9.56771
1 4.32516 -5.88947 9.13773
1 3.59517 -5.76159 8.56861
1 4.24437 -5.05891 8.41624
1 3.81837 -4.71046 9.18979
1 2.92474 -4.95876 8.98189
1 3.26955 -5.6584 9.53278
1 2.507 -6.01907 9.08366
1 2.59468 -6.2742 8.17197
1 2.7856 -5.88568 7.33354
1 3.4913 -6.50316 7.59881
1 3.0463 -7.35875 7.8057
1 3.37112 -8.21754 7.49884
1 3.3363 -9.0444 7.93184
1 3.72416 -9.85382 7.49357
1 4.55447 9.99562 7.06113
1 4.89766 -9.51324 7.84289
1 5.67851 9.96337 7.62707
1 5.71329 9.60156 8.54501
1 2.74852 -9.05546 -5.20482
1 3.46878 -8.40361 -5.3406
1 3.11487 -8.62671 -6.24909
1 3.06596 -8.29269 -7.16355
1 3.84991 -8.79978 -6.945
1 4.21678 -8.86058 -6.04074
1 3.77086 -9.416 -5.38728
1 4.56756 -9.84455 -5.71265
1 5.43358 -9.97612 -6.11028
1 5.04166 9.15498 -5.96239
1 5.3545 9.18443 -5.03405
1 5.04703 9.31516 -4.11026
1 4.82053 9.40286 -3.18481
1 5.43505 8.65329 -3.03591
1 6.01952 8.92654 -2.33253
1 6.57965 9.64718 -2.09502
1 6.98464 9.63634 -1.22614
1 7.23088 8.81569 -0.755487
1 6.88632 8.80827 0.18693
1 7.63406 8.23309 0.318432
1 7.46242 -8.84793 -3.58206
1 7.23886 -9.06041 -4.49986
1 7.02485 -9.38713 -5.39237
1 6.1201 -9.18603 -5.70046
1 5.19971 -8.87877 -5.71982
1 5.59445 -8.52599 -4.91577
1 6.1229 -9.26894 -4.5696
1 5.30384 -9.76471 -4.80284
1 4.34769 -9.86683 -4.60601
1 4.26004 9.33321 -5.15487
1 3.47554 8.77409 -4.98594
1 3.63044 8.31515 -5.80744
1 4.57141 8.29887 -5.65189
1 4.39455 8.46922 -6.5919
1 3.95881 9.29589 -6.27748
1 3.71733 -9.79319 -6.45466
1 3.06665 9.6016 -6.80188
1 2.8607 -9.48687 -7.09354
1 2.85018 -9.91235 -7.93842
1 3.26685 -9.0791 -7.93698
1 2.91155 8.62422 -9.01504
1 3.74714 8.23866 -9.20053
1 3.93617 8.90965 -8.5264
1 3.65931 9.43954 -9.2839
1 4.23841 9.87892 -9.88828
1 3.97383 9.56591 9.26204
1 3.53469 8.73829 9.05391
1 3.14184 8.61899 9.92579
1 3.60066 7.82328 9.60765
1 3.02083 7.53205 -9.7513
1 3.80172 7.14146 -9.37858
1 4.12092 6.5845 -8.63128
1 4.84871 7.04037 -9.11932
1 5.48975 7.24641 -9.7769
1 5.26788 7.62084 9.37168
1 4.46968 7.98175 9.01826
1 5.06217 8.05192 8.29311
1 4.92525 8.11505 7.34034
1 4.69135 7.31133 6.81302
1 5.6684 7.19988 6.81282
1 7.02554 -8.90253 -9.20386
1 6.27763 -8.97641 -9.79081
1 6.03523 -8.09466 -9.96563
1 5.96622 -8.28807 -9.00615
1 5.58735 -9.18742 -8.86304
1 5.1104 9.97729 -8.89006
1 5.88033 9.85794 -9.45297
1 5.21564 -9.59261 -9.93678
1 5.95927 -9.80612 9.48189
1 6.27892 9.3286 9.60413
1 6.73014 8.87614 8.90536
1 7.1303 8.06295 8.5516
1 6.83723 7.14295 8.68995
1 6.06982 7.69837 8.45307
1 5.97379 8.52221 8.06114
1 5.16945 9.00699 7.80186
1 5.09239 9.00709 6.87067
1 4.22244 8.95178 7.30001
1 4.12766 8.44452 8.08943
1 4.18236 7.54316 7.83004
1 1.75869 -9.65366 6.92647
1 1.41083 -9.58602 6.04041
1 1.24762 -9.13955 5.18498
1 2.18309 -8.94782 5.03943
1 2.61976 -8.28946 4.47358
1 2.47471 -7.40736 4.83336
1 2.18115 -6.6115 5.28043
1 1.56842 -7.28028 5.63114
1 1.86371 -7.46858 6.49729
1 2.57768 -7.98827 6.8381
1 3.31971 -8.45236 6.39575
1 3.73692 -9.31088 6.51093
1 4.25472 -8.98332 7.21448
1 4.34652 -8.39562 7.9862
1 5.04499 -7.79929 8.30651
1 5.49562 -7.91983 9.12311
1 5.58506 -8.85059 9.33158
1 4.85547 -8.87291 8.72513
1 4.3418 -9.26272 9.44401
1 4.90224 -9.92555 9.03445
1 6.90538 -6.50095 4.78266
1 6.49393 -6.84422 3.97546
1 6.26081 -6.94379 3.06396
1 6.20833 -7.91985 3.0483
1 5.47813 -7.95334 2.38829
1 4.71623 -8.39716 2.81719
1 4.12632 -9.04929 3.25568
1 3.76579 -9.66856 3.91859
1 3.83766 9.50203 3.39395
1 2.91079 9.72462 3.52341
1 -1.65932 -7.76999 1.09818
1 -1.04107 -7.03156 1.13481
1 -1.31681 -6.99276 2.09345
1 -0.796735 -7.786 1.92501
1 -0.578427 -8.55131 2.47048
1 0.178587 -8.51747 3.01525
1 1.00345 -8.04757 3.08205
1 1.2813 -8.94511 2.8167
1 1.54669 -9.70367 3.35852
1 2.42313 -9.47871 3.03625
1 1.93477 -9.6389 2.20662
1 2.53425 9.68523 1.9022
1 3.34344 9.43844 2.34702
1 3.40705 -9.68233 2.74027
1 2.92401 -9.26073 2.0341
1 3.28103 -8.61099 2.65991
1 3.9443 -8.10045 2.17953
1 4.69613 -8.30053 1.62973
1 5.30926 -9.00823 1.85947
1 5.04549 -9.93297 1.81222
1 1.19766 -6.24291 0.758527
1 1.66271 -5.45599 1.12096
1 0.737523 -5.15023 1.22781
1 0.221854 -5.83078 0.817317
1 0.790642 -5.35654 0.169954
1 0.307481 -4.54847 0.23586
1 -0.55828 -4.13851 0.214545
1 -1.36081 -4.64464 -0.088281
1 -1.28342 -5.44208 -0.578622
1 -0.406899 -5.79409 -0.546229
1 -0.360824 -6.6491 -1.01399
1 -1.22101 -6.53604 -0.576707
1 -0.748008 -7.0724 0.055862
1 -0.017339 -7.70471 0.027893
1 -0.661984 -7.90724 0.732738
1 0.092141 -7.72241 1.28814
1 0.004601 -6.8494 0.872716
1 0.800154 -7.29578 0.571865
1 1.66568 -7.21167 0.870868
1 2.24828 -7.98612 0.840204
1 -0.307213 -3.70276 1.43532
1 0.559566 -4.10836 1.14315
1 1.27013 -4.23193 1.76043
1 1.23969 -5.02675 2.26432
1 0.494408 -5.54337 2.54629
1 0.727359 -6.11052 1.80039
1 0.900122 -7.01612 1.62041
1 1.30652 -6.79663 2.44133
1 1.88392 -6.43706 1.72814
1 1.92129 -5.84247 2.48673
1 2.42453 -5.04795 2.62843
1 1.87043 -4.28512 2.63631
1 2.43878 -4.1656 3.39632
1 1.90463 -3.35613 3.59394
1 2.70574 -2.93999 3.85924
1 2.18611 -2.39215 3.28885
1 2.84944 -1.72156 3.42677
1 3.3161 -1.95814 4.26254
1 4.19697 -2.00772 3.9191
1 3.8439 -2.78362 3.50267
1 -0.492423 -3.99865 7.9666
1 -0.566545 -3.27424 8.5961
1 -1.08959 -3.72538 9.28493
1 -1.22304 -4.49011 8.67263
1 -0.995237 -5.16406 9.30142
1 -0.17947 -4.69015 9.46603
1 -0.784392 -4.41546 -9.83475
1 -0.0796 -3.77778 -9.89713
1 0.428693 -3.26746 9.44129
1 0.747381 -2.88406 8.59266
1 0.61148 -3.51552 7.91274
1 0.776779 -3.4815 6.97858
1 1.55707 -3.46796 6.37731
1 1.3177 -3.18439 5.48145
1 1.77855 -2.36796 5.33469
1 1.75095 -2.8682 4.52607
1 1.9884 -1.9957 4.25206
1 2.27164 -1.1039 4.28209
1 1.85905 -1.27911 3.43028
1 0.888377 -1.2676 3.40612
1 4.40313 -0.31975 8.97064
1 3.53111 -0.458811 9.33805
1 4.03657 -0.495941 -9.86364
1 3.46574 -1.10639 -9.39691
1 3.98523 -1.61732 -9.99791
1 3.80266 -2.44975 -9.60459
1 2.95304 -2.03628 -9.56473
1 3.1724 -1.88272 -8.65694
1 2.42566 -1.33313 -8.85185
1 2.32753 -1.18795 -9.77169
1 2.93908 -1.32682 9.53522
1 2.92359 -1.89105 8.76298
1 3.58563 -2.33884 9.32726
1 3.45578 -3.09578 8.7564
1 2.52942 -2.90412 8.93936
1 2.75119 -2.6866 8.02533
1 2.1269 -2.97233 7.39347
1 1.79105 -3.37639 8.20624
1 1.67602 -3.93296 7.43161
1 1.22352 -4.75896 7.28564
1 6.15146 4.4004 8.39949
1 5.3713 4.53188 8.91641
1 5.7949 3.92624 9.52709
1 5.12836 3.22864 9.53856
1 5.78686 3.02363 -9.81415
1 5.22232 3.74646 -9.42587
1 4.71689 4.25962 9.89047
1 4.25424 3.40897 -9.86647
1 4.76154 2.72417 -9.4922
1 3.89078 2.37181 -9.7028
1 3.04153 2.0552 9.92712
1 3.61885 1.3655 -9.77884
1 3.67603 0.627577 9.58044
1 3.56064 0.452437 8.65863
1 3.90434 0.728898 7.7794
1 3.24128 0.799116 7.11343
1 2.96087 0.23243 7.79555
1 2.10662 0.681729 7.71725
1 1.28419 1.04432 7.42924
1 0.825824 1.29476 8.24663
1 4.60103 2.59801 5.74777
1 4.90526 3.15277 6.46954
1 4.5105 4.02944 6.32068
1 3.70719 3.50145 6.51299
1 3.42198 2.90029 7.21443
1 3.31712 3.80688 7.46001
1 2.83828 3.32816 8.10978
1 2.83315 2.39153 8.33436
1 2.69387 2.90202 9.14908
1 3.21654 3.43176 9.75971
1 3.67358 4.26709 9.66734
1 3.53019 3.77391 8.8199
1 4.49782 3.75173 8.85121
1 4.20725 3.24758 8.1072
1 4.41177 3.75204 7.34148
1 4.09364 4.37821 8.07848
1 4.23028 4.82535 8.90565
1 4.79983 5.38121 9.50227
1 4.52139 5.23475 -9.59106
1 4.22851 6.12401 -9.59613
1 6.70426 4.61554 6.73375
1 6.02111 5.27347 6.52864
1 6.03178 5.07582 7.44128
1 6.46565 5.80523 7.86302
1 5.94418 5.4162 8.5603
1 5.07974 5.81514 8.48182
1 4.26922 6.05781 8.93817
1 4.06528 6.46868 8.04579
1 3.83906 5.54859 7.94383
1 3.07969 5.20819 7.4424
1 2.57839 4.47529 7.05518
1 2.17295 4.68354 6.21528
1 2.84253 3.98497 6.01481
1 2.79307 3.02037 5.85503
1 3.44876 2.39227 5.58903
1 4.08229 1.69997 5.49413
1 3.71446 0.810797 5.36675
1 3.16727 0.145075 5.84825
1 2.33648 0.479952 5.55016
1 2.71441 1.25454 5.08954
1 3.10706 0.710723 1.55885
1 3.18314 0.789186 2.50174
1 3.50867 0.155125 3.17966
1 4.01182 -0.145564 3.92448
1 3.76365 -1.00659 3.58154
1 4.72346 -1.09219 3.59891
1 5.04907 -1.56313 4.38926
1 5.82038 -1.139 4.05357
1 5.61431 -0.549532 3.33589
1 4.8537 0.035835 3.23651
1 4.46866 0.827323 3.56168
1 4.5777 1.75595 3.38509
1 5.44514 2.11247 3.45377
1 4.90037 2.83731 3.63408
1 5.02591 3.82361 3.6623
1 5.31134 4.71623 3.82121
1 4.5701 4.475 4.39728
1 3.86316 4.39176 3.71888
1 3.47 4.18173 2.90021
1 3.89485 4.38333 2.0456
1 1.70683 2.15715 -0.846543
1 1.22141 1.7852 -0.102166
1 1.6151 1.93739 0.742099
1 2.12663 2.46593 0.125633
1 2.50304 3.06321 -0.536737
1 2.45607 3.87158 -1.04398
1 3.28687 4.22943 -1.32993
1 3.80326 3.62451 -0.741959
1 4.40583 3.19337 -1.37086
1 4.07646 2.94352 -2.22173
1 3.90028 3.84568 -2.0488
1 4.07711 4.77432 -1.90713
1 4.73426 4.46664 -2.53747
1 5.07326 4.01037 -3.31474
1 4.45611 4.24733 -4.02293
1 4.74201 3.34909 -4.09748
1 5.33744 3.06335 -4.78119
1 4.99113 2.51704 -5.51955
1 5.41524 2.59815 -6.37758
1 6.24253 2.85689 -6.76567
1 1.19261 2.07867 8.87412
1 1.66118 1.90064 8.06602
1 0.856189 2.14 7.60376
1 1.45064 1.97492 6.88192
1 1.72332 2.82284 6.58362
1 2.47871 3.39198 6.85792
1 2.21744 2.75612 7.50972
1 1.85524 2.94394 8.41374
1 1.51751 3.13206 9.30312
1 2.08713 3.36051 -9.9444
1 2.65615 2.82394 -9.41849
1 2.19552 3.36265 -8.77612
1 2.86731 2.9331 -8.25151
1 3.59818 3.20741 -7.67936
1 3.38396 3.06684 -6.74401
1 4.00331 2.82591 -6.03819
1 4.37896 3.35747 -5.3703
1 5.19566 3.47801 -5.84068
1 5.38563 3.74425 -6.74526
1 5.29348 4.70264 -6.72965
1 5.19797 8.73961 -1.09449
1 5.21474 8.3073 -1.93675
1 4.91763 9.19417 -2.15191
1 4.34562 8.54923 -2.58296
1 4.84702 7.83071 -2.9182
1 4.05226 7.34464 -3.22344
1 4.29512 7.13073 -4.09706
1 4.71402 6.26366 -4.08627
1 4.97596 6.58048 -3.20377
1 4.06513 6.32351 -2.9741
1 3.11181 6.24896 -3.05714
1 3.07744 7.09494 -3.44774
1 3.18604 6.85151 -4.37381
1 3.5549 6.06499 -4.01043
1 4.16281 5.39223 -3.7928
1 4.78152 5.41633 -3.05256
1 5.25116 4.94975 -3.82173
1 4.94171 5.20517 -4.68132
1 4.0191 5.47654 -4.90907
1 4.02449 6.42559 -5.11172
1 2.11012 3.92934 -4.16362
1 2.239 4.71248 -4.63064
1 1.79829 5.56989 -4.49079
1 1.8186 6.30261 -5.13244
1 2.13077 7.03956 -4.60262
1 2.35264 6.36876 -3.9452
1 1.73808 5.91439 -3.36866
1 2.12973 6.64973 -2.8043
1 2.51788 6.23081 -2.05159