units 		lj
dimension 	3

#atom_style	bond
# if there are angular potentials, use next line
atom_style	angle
angle_style	cosine

read_data k{100}t{1.2}p{0.0}f{5}n{8000}npt.lmp #comment me after t1.2
  orthogonal box = (-10 -10 -10) to (10 10 10)
  2 by 2 by 2 MPI processor grid
  reading atoms ...
  8000 atoms
  reading velocities ...
  8000 velocities
  scanning bonds ...
  1 = max bonds/atom
  scanning angles ...
  1 = max angles/atom
  reading bonds ...
  7200 bonds
  reading angles ...
  320 angles
  2 = max # of 1-2 neighbors
  2 = max # of 1-3 neighbors
  4 = max # of 1-4 neighbors
  6 = max # of special neighbors
  special bonds CPU = 1.50102 secs
  read_data CPU = 2.84801 secs
#read_restart k${k}t${T}p${p}f${f}n${n}npt-1.res #todo: use both instead of 1? talk to Starr

pair_style	lj/cut	2.5
#when using global * * the cutoff should be the smallest of all possible pairs
pair_coeff	* *	1.0 1.0 2.5  #final 2.5 is redundant here; can override global
pair_modify	shift	yes

bond_style	fene
bond_coeff	1	30 1.5		1.0 1.0
special_bonds fene
  2 = max # of 1-2 neighbors
  6 = max # of special neighbors
  special bonds CPU = 0.5952 secs

angle_coeff 	1 ${k}
angle_coeff 	1 100

fix	1	all npt	temp ${T} ${T}  1.0   iso ${p} ${p} 5.0 #todo: is this what f is?
fix	1	all npt	temp 1.2 ${T}  1.0   iso ${p} ${p} 5.0 
fix	1	all npt	temp 1.2 1.2  1.0   iso ${p} ${p} 5.0 
fix	1	all npt	temp 1.2 1.2  1.0   iso 0.0 ${p} 5.0 
fix	1	all npt	temp 1.2 1.2  1.0   iso 0.0 0.0 5.0 
#starting temperature/ending Temperature/Tdamp
fix cmvel all momentum 1000 linear 1 1 1

# todo: find a way to store energy between two different types of poly chains
thermo_style custom step ke pe etotal epair ebond eangle press temp lx vol
thermo 1000

dump 1 all xyz	100000	dump${k}.xyz
dump 1 all xyz	100000	dump100.xyz

restart 1000 k${k}t${T}p${p}f${f}n${n}npt-1.res k${k}t${T}p${p}f${f}n${n}npt-2.res
restart 1000 k100t${T}p${p}f${f}n${n}npt-1.res k${k}t${T}p${p}f${f}n${n}npt-2.res
restart 1000 k100t1.2p${p}f${f}n${n}npt-1.res k${k}t${T}p${p}f${f}n${n}npt-2.res
restart 1000 k100t1.2p0.0f${f}n${n}npt-1.res k${k}t${T}p${p}f${f}n${n}npt-2.res
restart 1000 k100t1.2p0.0f5n${n}npt-1.res k${k}t${T}p${p}f${f}n${n}npt-2.res
restart 1000 k100t1.2p0.0f5n8000npt-1.res k${k}t${T}p${p}f${f}n${n}npt-2.res
restart 1000 k100t1.2p0.0f5n8000npt-1.res k100t${T}p${p}f${f}n${n}npt-2.res
restart 1000 k100t1.2p0.0f5n8000npt-1.res k100t1.2p${p}f${f}n${n}npt-2.res
restart 1000 k100t1.2p0.0f5n8000npt-1.res k100t1.2p0.0f${f}n${n}npt-2.res
restart 1000 k100t1.2p0.0f5n8000npt-1.res k100t1.2p0.0f5n${n}npt-2.res
restart 1000 k100t1.2p0.0f5n8000npt-1.res k100t1.2p0.0f5n8000npt-2.res

#run_style respa 2 3 bond 1 pair 2
#timestep 0.006

timestep 0.002

run 10000000
Neighbor list info ...
  update every 1 steps, delay 10 steps, check yes
  max neighbors/atom: 2000, page size: 100000
  master list distance cutoff = 2.8
  ghost atom cutoff = 2.8
  binsize = 1.4, bins = 15 15 15
  1 neighbor lists, perpetual/occasional/extra = 1 0 0
  (1) pair lj/cut, perpetual
      attributes: half, newton on
      pair build: half/bin/newton
      stencil: half/bin/3d/newton
      bin: standard
WARNING: Inconsistent image flags (../domain.cpp:785)
Per MPI rank memory allocation (min/avg/max) = 6.496 | 6.516 | 6.649 Mbytes
Step KinEng PotEng TotEng E_pair E_bond E_angle Press Temp Lx Volume 
       0   0.48448444    15.713638    16.198123   -5.6481987    18.329377    3.0324602   -1.5880033   0.32303001           20         8000 
    1000    1.6589142    14.436591    16.095505   -4.5178829    18.684797   0.26967643    1.0280368    1.1060811    20.763917    8952.1602 
    2000    1.7174699    14.578539    16.296009   -4.2451295    18.685605   0.13806393   0.37356981    1.1451231    21.110245    9407.6205 
    3000    1.7938859    14.699516    16.493402   -4.1134153    18.722263  0.090669221    0.1137171    1.1960734     21.28307    9640.5723 
    4000    1.8107864    14.781496    16.592283   -4.0105392    18.734078  0.057957537 -0.073794786    1.2073418    21.395465    9794.1146 
    5000    1.7895145    14.811178    16.600693   -3.9779207     18.73782  0.051279356  -0.23288464    1.1931588    21.438697    9853.6048 
    6000     1.794716     14.77202    16.566736   -3.9933565    18.710337  0.055039752   0.16255328    1.1966269    21.413473    9818.8656 
    7000    1.8002068     14.76613    16.566337     -4.00489    18.721005  0.050015209 -0.020412779    1.2002879    21.403237    9804.7915 
    8000    1.8154048     14.77687    16.592274    -3.997524    18.725687  0.048706623  0.093875021    1.2104212    21.416119    9822.5065 
    9000    1.7843893    14.787294    16.571684   -3.9878872    18.725749  0.049432855 -0.027205603    1.1897416     21.43478     9848.205 
   10000    1.8128485    14.773298    16.586147   -4.0002015    18.723198  0.050301303  0.061260445    1.2087168     21.39414    9792.2952 
   11000     1.789869    14.769021     16.55889   -4.0010679    18.726134  0.043955411 -0.083032232    1.1933951    21.419753    9827.5069 
   12000    1.7969836    14.785355    16.582338   -3.9894966    18.724517  0.050334202    0.1994594    1.1981388    21.401334    9802.1766 
   13000    1.8050661    14.801374    16.606441   -3.9801626    18.729652  0.051884661  -0.11521812    1.2035278    21.453893    9874.5732 
   14000    1.8080634    14.794004    16.602067   -3.9844274    18.728923  0.049508376    0.3215758    1.2055263    21.433062    9845.8375 
   15000    1.7896018    14.787716    16.577317   -4.0083124    18.743446  0.052581951  -0.15654178     1.193217    21.428117    9839.0243 
   16000    1.8016926    14.788986    16.590678   -3.9914179    18.729274  0.051129794 0.0080351672    1.2012786    21.425238    9835.0583 
   17000    1.7882032    14.765058    16.553261   -3.9980832    18.715957   0.04718463   -0.1428451    1.1922845    21.403422    9805.0458 
   18000    1.7869469    14.789311    16.576258   -3.9852259    18.727934  0.046603369 -0.083372485    1.1914469    21.414301    9820.0044 
   19000    1.8214976    14.813555    16.635053   -3.9627497    18.724718  0.051586282   0.13826945    1.2144835    21.444129     9861.097 
   20000    1.8113393    14.780702    16.592041    -3.981576    18.714457  0.047820851   0.16134117    1.2077105    21.437463    9851.9039 
   21000    1.7848715     14.78974    16.574611    -3.990948    18.731136  0.049551643 -0.0058665535    1.1900631    21.429675    9841.1709 
   22000    1.8039312    14.807476    16.611407   -3.9875798    18.743719  0.051336794   0.12571435    1.2027712    21.402374    9803.6059 
   23000    1.7930116    14.791018     16.58403   -3.9906253    18.731231  0.050412083  -0.09840702    1.1954905     21.46201    9885.7851 
   24000    1.8104008    14.768044    16.578445   -4.0053514    18.724106  0.049289315  0.088594208    1.2070848     21.41203    9816.8806 
   25000    1.7954499    14.774469    16.569919   -3.9873601    18.718926  0.042903463  0.084753052    1.1971162    21.428418    9839.4386 
   26000    1.8132124    14.782443    16.595656   -3.9932837    18.725336  0.050390851   0.17503742    1.2089594    21.410582    9814.8889 
   27000    1.7830658    14.763081    16.546147   -4.0017849       18.718  0.046866056  0.014708686    1.1888591    21.418885    9826.3126 
   28000    1.7656263    14.800154     16.56578   -3.9878337    18.736377  0.051610909    0.1701751    1.1772314    21.414079    9819.6995 
   29000     1.835853    14.759256    16.595109   -4.0112252    18.722535   0.04794632   0.13350451     1.224055    21.390019    9786.6374 
   30000    1.7758633    14.764395    16.540258   -3.9945042    18.708237  0.050662499  0.032729691    1.1840569    21.435196    9848.7793 
   31000    1.7926628    14.791603    16.584266   -3.9888735    18.731464  0.049012437 -0.026850925    1.1952579    21.419544    9827.2194 
   32000    1.8067912    14.779525    16.586316   -3.9883737     18.71939  0.048508989 -0.070546997     1.204678    21.443229     9859.855 
   33000    1.8186548    14.761594    16.580249   -4.0144574    18.731566   0.04448584  0.046526223    1.2125881     21.40454    9806.5829 
   34000    1.8071796    14.728058    16.535237   -4.0514484    18.735007  0.044499556 -0.032150836     1.204937    21.367204    9755.3552 
   35000    1.7911847    14.744491    16.535676   -4.0370964    18.734491  0.047096735 -0.038953244    1.1942724    21.381062    9774.3486 
   36000    1.8053105    14.794575    16.599886   -3.9813865    18.728877   0.04708422  0.079316579    1.2036908    21.437515     9851.976 
   37000    1.8173448    14.796561    16.613906   -3.9754694    18.727889  0.044141619  -0.12657643    1.2117147    21.449848    9868.9885 
   38000    1.7922995    14.761465    16.553764     -4.02252    18.736499  0.047486173   0.12018481    1.1950157    21.394541    9792.8455 
   39000    1.7922491    14.743207    16.535456   -4.0372587    18.733615  0.046850936   0.17234801    1.1949821    21.365372    9752.8468 
   40000    1.7779857     14.78423    16.562215   -3.9951579    18.733298  0.046089833 -0.076222022     1.185472    21.398182    9797.8462 
   41000    1.8027098    14.779361     16.58207    -3.986765     18.72432  0.041805346 -0.0071170396    1.2019568    21.431397    9843.5424 
   42000    1.8257496    14.802414    16.628164   -3.9758112    18.727246  0.050979517  0.068071813    1.2173186    21.440157    9855.6185 
   43000    1.7876584    14.816221    16.603879   -3.9570751    18.722978  0.050317742 -0.072434238    1.1919213    21.482435    9914.0368 
   44000    1.8058319    14.787149     16.59298   -3.9914325     18.73331   0.04527135    0.1983546    1.2040385    21.396796    9795.9429 
   45000    1.8007228    14.750109    16.550832   -4.0262534    18.726745  0.049617647  -0.05940274     1.200632    21.387747    9783.5193 
   46000    1.7947924    14.751423    16.546215   -4.0192271    18.727549  0.043101234  -0.05194552    1.1966778    21.390689    9787.5568 
   47000    1.8087541     14.80201    16.610764   -3.9630725    18.721806  0.043276371   0.25623827    1.2059868    21.442002    9858.1628 
   48000    1.8057639    14.776846     16.58261   -4.0043099    18.736433  0.044722201  -0.22230125    1.2039931    21.432008    9844.3847 
   49000    1.7829254    14.749823    16.532749   -4.0162846    18.716227  0.049881056  -0.10346653    1.1887655    21.405938    9808.5047 
   50000    1.8346482    14.735773    16.570421     -4.04063    18.729392  0.047011242 -0.077513416    1.2232517    21.354698    9738.2359 
   51000    1.7947098    14.781898    16.576608   -3.9960342    18.732377  0.045555473  -0.14053788    1.1966228    21.420252    9828.1946 
   52000    1.7957782     14.77745    16.573229   -3.9944971    18.721462  0.050485125   0.12621418    1.1973351    21.414935    9820.8774 
   53000    1.7937558    14.723007    16.516763   -4.0368473     18.71658  0.043274368  -0.13028207    1.1959867    21.371866    9761.7423 
   54000    1.8023298    14.754099    16.556429   -4.0224632    18.734777  0.041785261  0.016849762    1.2017034    21.370625    9760.0416 
   55000    1.8051643    14.770473    16.575638   -4.0101963     18.73225  0.048419157 0.0056475824    1.2035933    21.423462    9832.6133 
   56000     1.827916    14.778125    16.606041   -4.0030428    18.737769  0.043399598  0.064086316     1.218763    21.421299    9829.6351 
   57000    1.7831316    14.767776    16.550907   -4.0025154    18.722243  0.048048266  -0.12852509     1.188903    21.409232    9813.0329 
   58000    1.7999823    14.775989    16.575971   -4.0159373    18.743193  0.048733146  0.071878973    1.2001382    21.403132    9804.6478 
   59000    1.8119313    14.815687    16.627619   -3.9717165    18.738987  0.048416757 -0.0081207915    1.2081052    21.469414    9896.0202 
   60000    1.8092397    14.769035    16.578274   -4.0027289    18.726996  0.044768038  -0.06998036    1.2063106    21.429972    9841.5792 
   61000    1.7541161    14.790832    16.544948   -3.9956717    18.737354  0.049149325 -0.052483259    1.1695569    21.413139    9818.4063 
   62000    1.8268023    14.759612    16.586414   -4.0153057    18.726845  0.048073145   0.17250945    1.2180204    21.391154    9788.1956 
   63000      1.78001    14.803733    16.583743   -3.9830497    18.739568  0.047214895  -0.10933759    1.1868217    21.432869    9845.5711 
   64000    1.7602898    14.788644    16.548933   -3.9828942    18.724939  0.046598423   0.16457749    1.1736733    21.427549    9838.2422 
   65000    1.8143714    14.764025    16.578396   -4.0098095    18.721128  0.052706802 -0.051868589    1.2097322    21.411499    9816.1513 
   66000    1.7882776    14.782043     16.57032   -4.0007441    18.735488  0.047299008  -0.06374227    1.1923341    21.418668    9826.0141 
   67000    1.7716628    14.750793    16.522456   -4.0071676    18.710628  0.047332724  0.017121142    1.1812562    21.410692    9815.0413 
   68000    1.8215005    14.750062    16.571562   -4.0177802    18.720259  0.047582999  0.047169751    1.2144855    21.387841    9783.6488 
   69000    1.7818796    14.787433    16.569313   -3.9827736    18.722529  0.047677132  -0.13205213    1.1880683    21.436578    9850.6844 
   70000    1.8246414    14.791793    16.616434   -3.9840628     18.72787   0.04798593   0.10894004    1.2165797     21.40805    9811.4079 
   71000    1.7852044    14.779739    16.564943   -3.9940836    18.726893  0.046929877 -0.091267889    1.1902851    21.429255    9840.5922 
   72000    1.7985255    14.760055     16.55858   -4.0080269    18.727602  0.040479251  -0.16265653    1.1991669       21.383     9777.006 
   73000    1.7689537    14.751463    16.520417   -4.0227621    18.724789  0.049436516  -0.16241223    1.1794499    21.399659    9799.8756 
   74000    1.8229625    14.741817     16.56478    -4.038441    18.732157  0.048101436 -0.052100299    1.2154603    21.363642    9750.4776 
   75000    1.7820263    14.769311    16.551338   -3.9930891    18.712629  0.049771495  0.017744688     1.188166    21.427018    9837.5097 
   76000    1.7906535    14.771082    16.561735   -4.0022509    18.727081  0.046251622   0.13890261    1.1939182    21.402178    9803.3371 
   77000    1.8143306    14.798111    16.612441   -3.9747425    18.727469  0.045384014   0.14140082     1.209705    21.451416    9871.1533 
   78000    1.8075002    14.756407    16.563907   -4.0224819    18.727769  0.051119455  -0.24504881    1.2051508    21.416726     9823.342 
   79000    1.7947369     14.76023    16.554967   -4.0111709    18.725472  0.045928813  0.094169941    1.1966409    21.376837     9768.555 
   80000    1.7846592    14.779978    16.564637    -4.001618    18.733224  0.048372442  -0.16358762    1.1899216    21.435457     9849.138 
   81000    1.8357589    14.766888    16.602647   -4.0109572    18.730033  0.047812443 -0.078483466    1.2239922    21.412792    9817.9297 
   82000    1.7590128    14.807924    16.566937   -3.9801763    18.737083  0.051017924  0.068384159    1.1728218    21.444997    9862.2951 
   83000    1.8081089    14.770931     16.57904   -3.9905552    18.711765  0.049720452  0.018916765    1.2055566    21.406175    9808.8297 
   84000    1.7553131    14.768494    16.523807   -4.0142012    18.739728  0.042967379  0.098277133     1.170355    21.389606    9786.0709 
   85000    1.7893588    14.738759    16.528118   -4.0289677    18.720853  0.046874093  0.070561064     1.193055    21.365391    9752.8717 
   86000    1.7977657    14.771237    16.569002   -3.9893767    18.715483  0.045130768 -0.00098767517    1.1986603    21.429191    9840.5031 
   87000     1.825132     14.77114    16.596272   -4.0149417    18.737308  0.048773599  0.047798556    1.2169068    21.405213    9807.5075 
   88000    1.7747833    14.766274    16.541058   -4.0076256    18.729044  0.044855596 -0.044818762    1.1833368    21.421519     9829.938 
   89000    1.7955794    14.771398    16.566978   -3.9970036    18.721279  0.047122978   0.13444359    1.1972026     21.38668     9782.055 
   90000    1.7878808     14.78121    16.569091   -3.9914133     18.72667  0.045953717  -0.13762407    1.1920696    21.429635    9841.1151 
   91000    1.7961247    14.806978    16.603103   -3.9812932    18.742123  0.046148645 -0.066269127    1.1975662    21.419915      9827.73 
   92000    1.7860535    14.773378    16.559431   -4.0036173    18.728089  0.048906504  0.012347282    1.1908512    21.403244    9804.8015 
   93