LAMMPS (19 Mar 2020)
# Abstract LAMMPS input file

variable k world 100
variable T world 1.2
variable p world 0.0
variable n world 8000
variable f world 5 # world ensures leading zeros get passed

variable filename string k{100}t{1.2}p{0.0}f{5}n{8000}npt

log filename.log
