units 		lj
dimension 	3

#atom_style	bond
# if there are angular potentials, use next line
atom_style	angle
angle_style	cosine

read_data t1.2p0.0n8000npt.lmp
  orthogonal box = (-10 -10 -10) to (10 10 10)
  2 by 2 by 2 MPI processor grid
  reading atoms ...
  8000 atoms
  reading velocities ...
  8000 velocities
  scanning bonds ...
  1 = max bonds/atom
  scanning angles ...
  1 = max angles/atom
  reading bonds ...
  7200 bonds
  reading angles ...
  320 angles
  2 = max # of 1-2 neighbors
  2 = max # of 1-3 neighbors
  4 = max # of 1-4 neighbors
  6 = max # of special neighbors
  special bonds CPU = 0.001194 secs
  read_data CPU = 0.0367601 secs

pair_style	lj/cut	2.5
#when using global * * the cutoff should be the smallest of all possible pairs
pair_coeff	* *	1.0 1.0 2.5  #final 2.5 is redundant here; can override global
pair_modify	shift	yes

bond_style	fene
bond_coeff	1	30 1.5		1.0 1.0
special_bonds fene
  2 = max # of 1-2 neighbors
  6 = max # of special neighbors
  special bonds CPU = 0.000443935 secs

angle_coeff 	1 ${k}
angle_coeff 	1 100

fix	1	all npt	temp 1.2 1.2 1.0   iso 0.0 0.0 5.0
#starting temperature/ending Temperature/Tdamp
fix cmvel all momentum 1000 linear 1 1 1

thermo_style custom step ke pe etotal epair ebond eangle press temp lx vol
thermo 1000

dump 1 all xyz	1000	dump{$k}.xyz
dump 1 all xyz	1000	dump{100}.xyz

restart 1000 t1.2p0.0n8000npt-1.res 0.5p0.0n8000npt-2.res

#run_style respa 2 3 bond 1 pair 2
#timestep 0.006

timestep 0.002

run 10000000
Neighbor list info ...
  update every 1 steps, delay 10 steps, check yes
  max neighbors/atom: 2000, page size: 100000
  master list distance cutoff = 2.8
  ghost atom cutoff = 2.8
  binsize = 1.4, bins = 15 15 15
  1 neighbor lists, perpetual/occasional/extra = 1 0 0
  (1) pair lj/cut, perpetual
      attributes: half, newton on
      pair build: half/bin/newton
      stencil: half/bin/3d/newton
      bin: standard
WARNING: Inconsistent image flags (../domain.cpp:785)
Per MPI rank memory allocation (min/avg/max) = 6.496 | 6.516 | 6.649 Mbytes
Step KinEng PotEng TotEng E_pair E_bond E_angle Press Temp Lx Volume 
       0   0.48448444    15.713638    16.198123   -5.6481987    18.329377    3.0324602   -1.5880033   0.32303001           20         8000 
    1000    1.6589142    14.436591    16.095505   -4.5178829    18.684797   0.26967643    1.0280368    1.1060811    20.763917    8952.1602 
    2000    1.7174699    14.578539    16.296009   -4.2451295    18.685605   0.13806393   0.37356981    1.1451231    21.110245    9407.6205 
    3000    1.7938859    14.699516    16.493402   -4.1134153    18.722263  0.090669221    0.1137171    1.1960734     21.28307    9640.5723 
    4000    1.8107864    14.781496    16.592283   -4.0105392    18.734078  0.057957537 -0.073794786    1.2073418    21.395465    9794.1146 
    5000    1.7895145    14.811178    16.600693   -3.9779207     18.73782  0.051279356  -0.23288464    1.1931588    21.438697    9853.6048 
    6000     1.794716     14.77202    16.566736   -3.9933565    18.710337  0.055039752   0.16255328    1.1966269    21.413473    9818.8656 
    7000    1.8002068     14.76613    16.566337     -4.00489    18.721005  0.050015209 -0.020412779    1.2002879    21.403237    9804.7915 
    8000    1.8154048     14.77687    16.592274    -3.997524    18.725687  0.048706623  0.093875021    1.2104212    21.416119    9822.5065 
    9000    1.7843893    14.787294    16.571684   -3.9878872    18.725749  0.049432855 -0.027205603    1.1897416     21.43478     9848.205 
   10000    1.8128485    14.773298    16.586147   -4.0002015    18.723198  0.050301303  0.061260445    1.2087168     21.39414    9792.2952 
   11000     1.789869    14.769021     16.55889   -4.0010679    18.726134  0.043955411 -0.083032232    1.1933951    21.419753    9827.5069 
   12000    1.7969836    14.785355    16.582338   -3.9894966    18.724517  0.050334202    0.1994594    1.1981388    21.401334    9802.1766 
   13000    1.8050661    14.801374    16.606441   -3.9801626    18.729652  0.051884661  -0.11521812    1.2035278    21.453893    9874.5732 
   14000    1.8080634    14.794004    16.602067   -3.9844274    18.728923  0.049508376    0.3215758    1.2055263    21.433062    9845.8375 
   15000    1.7896018    14.787716    16.577317   -4.0083124    18.743446  0.052581951  -0.15654178     1.193217    21.428117    9839.0243 
   16000    1.8016926    14.788986    16.590678   -3.9914179    18.729274  0.051129794 0.0080351672    1.2012786    21.425238    9835.0583 
   17000    1.7882032    14.765058    16.553261   -3.9980832    18.715957   0.04718463   -0.1428451    1.1922845    21.403422    9805.0458 
   18000    1.7869469    14.789311    16.576258   -3.9852259    18.727934  0.046603369 -0.083372485    1.1914469    21.414301    9820.0044 
   19000    1.8214976    14.813555    16.635053   -3.9627497    18.724718  0.051586282   0.13826945    1.2144835    21.444129     9861.097 
   20000    1.8113393    14.780702    16.592041    -3.981576    18.714457  0.047820851   0.16134117    1.2077105    21.437463    9851.9039 
   21000    1.7848715     14.78974    16.574611    -3.990948    18.731136  0.049551643 -0.0058665535    1.1900631    21.429675    9841.1709 
   22000    1.8039312    14.807476    16.611407   -3.9875798    18.743719  0.051336794   0.12571435    1.2027712    21.402374    9803.6059 
   23000    1.7930116    14.791018     16.58403   -3.9906253    18.731231  0.050412083  -0.09840702    1.1954905     21.46201    9885.7851 
   24000    1.8104008    14.768044    16.578445   -4.0053514    18.724106  0.049289315  0.088594208    1.2070848     21.41203    9816.8806 
   25000    1.7954499    14.774469    16.569919   -3.9873601    18.718926  0.042903463  0.084753052    1.1971162    21.428418    9839.4386 
   26000    1.8132124    14.782443    16.595656   -3.9932837    18.725336  0.050390851   0.17503742    1.2089594    21.410582    9814.8889 
   27000    1.7830658    14.763081    16.546147   -4.0017849       18.718  0.046866056  0.014708686    1.1888591    21.418885    9826.3126 
   28000    1.7656263    14.800154     16.56578   -3.9878337    18.736377  0.051610909    0.1701751    1.1772314    21.414079    9819.6995 
   29000     1.835853    14.759256    16.595109   -4.0112252    18.722535   0.04794632   0.13350451     1.224055    21.390019    9786.6374 
   30000    1.7758633    14.764395    16.540258   -3.9945042    18.708237  0.050662499  0.032729691    1.1840569    21.435196    9848.7793 
   31000    1.7926628    14.791603    16.584266   -3.9888735    18.731464  0.049012437 -0.026850925    1.1952579    21.419544    9827.2194 
   32000    1.8067912    14.779525    16.586316   -3.9883737     18.71939  0.048508989 -0.070546997     1.204678    21.443229     9859.855 
   33000    1.8186548    14.761594    16.580249   -4.0144574    18.731566   0.04448584  0.046526223    1.2125881     21.40454    9806.5829 
   34000    1.8071796    14.728058    16.535237   -4.0514484    18.735007  0.044499556 -0.032150836     1.204937    21.367204    9755.3552 
   35000    1.7911847    14.744491    16.535676   -4.0370964    18.734491  0.047096735 -0.038953244    1.1942724    21.381062    9774.3486 
   36000    1.8053105    14.794575    16.599886   -3.9813865    18.728877   0.04708422  0.079316579    1.2036908    21.437515     9851.976 
   37000    1.8173448    14.796561    16.613906   -3.9754694    18.727889  0.044141619  -0.12657643    1.2117147    21.449848    9868.9885 
   38000    1.7922995    14.761465    16.553764     -4.02252    18.736499  0.047486173   0.12018481    1.1950157    21.394541    9792.8455 
   39000    1.7922491    14.743207    16.535456   -4.0372587    18.733615  0.046850936   0.17234801    1.1949821    21.365372    9752.8468 
   40000    1.7779857     14.78423    16.562215   -3.9951579    18.733298  0.046089833 -0.076222022     1.185472    21.398182    9797.8462 
   41000    1.8027098    14.779361     16.58207    -3.986765     18.72432  0.041805346 -0.0071170396    1.2019568    21.431397    9843.5424 
   42000    1.8257496    14.802414    16.628164   -3.9758112    18.727246  0.050979517  0.068071813    1.2173186    21.440157    9855.6185 
   43000    1.7876584    14.816221    16.603879   -3.9570751    18.722978  0.050317742 -0.072434238    1.1919213    21.482435    9914.0368 
   44000    1.8058319    14.787149     16.59298   -3.9914325     18.73331   0.04527135    0.1983546    1.2040385    21.396796    9795.9429 
   45000    1.8007228    14.750109    16.550832   -4.0262534    18.726745  0.049617647  -0.05940274     1.200632    21.387747    9783.5193 
   46000    1.7947924    14.751423    16.546215   -4.0192271    18.727549  0.043101234  -0.05194552    1.1966778    21.390689    9787.5568 
   47000    1.8087541     14.80201    16.610764   -3.9630725    18.721806  0.043276371   0.25623827    1.2059868    21.442002    9858.1628 
   48000    1.8057639    14.776846     16.58261   -4.0043099    18.736433  0.044722201  -0.22230125    1.2039931    21.432008    9844.3847 
   49000    1.7829254    14.749823    16.532749   -4.0162846    18.716227  0.049881056  -0.10346653    1.1887655    21.405938    9808.5047 
   50000    1.8346482    14.735773    16.570421     -4.04063    18.729392  0.047011242 -0.077513416    1.2232517    21.354698    9738.2359 
   51000    1.7947098    14.781898    16.576608   -3.9960342    18.732377  0.045555473  -0.14053788    1.1966228    21.420252    9828.1946 
   52000    1.7957782     14.77745    16.573229   -3.9944971    18.721462  0.050485125   0.12621418    1.1973351    21.414935    9820.8774 
   53000    1.7937558    14.723007    16.516763   -4.0368473     18.71658  0.043274368  -0.13028207    1.1959867    21.371866    9761.7423 
   54000    1.8023298    14.754099    16.556429   -4.0224632    18.734777  0.041785261  0.016849762    1.2017034    21.370625    9760.0416 
   55000    1.8051643    14.770473    16.575638   -4.0101963     18.73225  0.048419157 0.0056475824    1.2035933    21.423462    9832.6133 
   56000     1.827916    14.778125    16.606041   -4.0030428    18.737769  0.043399598  0.064086316     1.218763    21.421299    9829.6351 
   57000    1.7831316    14.767776    16.550907   -4.0025154    18.722243  0.048048266  -0.12852509     1.188903    21.409232    9813.0329 
   58000    1.7999823    14.775989    16.575971   -4.0159373    18.743193  0.048733146  0.071878973    1.2001382    21.403132    9804.6478 
   59000    1.8119313    14.815687    16.627619   -3.9717165    18.738987  0.048416757 -0.0081207915    1.2081052    21.469414    9896.0202 
   60000    1.8092397    14.769035    16.578274   -4.0027289    18.726996  0.044768038  -0.06998036    1.2063106    21.429972    9841.5792 
   61000    1.7541161    14.790832    16.544948   -3.9956717    18.737354  0.049149325 -0.052483259    1.1695569    21.413139    9818.4063 
   62000    1.8268023    14.759612    16.586414   -4.0153057    18.726845  0.048073145   0.17250945    1.2180204    21.391154    9788.1956 
   63000      1.78001    14.803733    16.583743   -3.9830497    18.739568  0.047214895  -0.10933759    1.1868217    21.432869    9845.5711 
   64000    1.7602898    14.788644    16.548933   -3.9828942    18.724939  0.046598423   0.16457749    1.1736733    21.427549    9838.2422 
   65000    1.8143714    14.764025    16.578396   -4.0098095    18.721128  0.052706802 -0.051868589    1.2097322    21.411499    9816.1513 
   66000    1.7882776    14.782043     16.57032   -4.0007441    18.735488  0.047299008  -0.06374227    1.1923341    21.418668    9826.0141 
   67000    1.7716628    14.750793    16.522456   -4.0071676    18.710628  0.047332724  0.017121142    1.1812562    21.410692    9815.0413 
   68000    1.8215005    14.750062    16.571562   -4.0177802    18.720259  0.047582999  0.047169751    1.2144855    21.387841    9783.6488 
   69000    1.7818796    14.787433    16.569313   -3.9827736    18.722529  0.047677132  -0.13205213    1.1880683    21.436578    9850.6844 
   70000    1.8246414    14.791793    16.616434   -3.9840628     18.72787   0.04798593   0.10894004    1.2165797     21.40805    9811.4079 
   71000    1.7852044    14.779739    16.564943   -3.9940836    18.726893  0.046929877 -0.091267889    1.1902851    21.429255    9840.5922 
   72000    1.7985255    14.760055     16.55858   -4.0080269    18.727602  0.040479251  -0.16265653    1.1991669       21.383     9777.006 
   73000    1.7689537    14.751463    16.520417   -4.0227621    18.724789  0.049436516  -0.16241223    1.1794499    21.399659    9799.8756 
   74000    1.8229625    14.741817     16.56478    -4.038441    18.732157  0.048101436 -0.052100299    1.2154603    21.363642    9750.4776 
   75000    1.7820263    14.769311    16.551338   -3.9930891    18.712629  0.049771495  0.017744688     1.188166    21.427018    9837.5097 
   76000    1.7906535    14.771082    16.561735   -4.0022509    18.727081  0.046251622   0.13890261    1.1939182    21.402178    9803.3371 
   77000    1.8143306    14.798111    16.612441   -3.9747425    18.727469  0.045384014   0.14140082     1.209705    21.451416    9871.1533 
   78000    1.8075002    14.756407    16.563907   -4.0224819    18.727769  0.051119455  -0.24504881    1.2051508    21.416726     9823.342 
   79000    1.7947369     14.76023    16.554967   -4.0111709    18.725472  0.045928813  0.094169941    1.1966409    21.376837     9768.555 
   80000    1.7846592    14.779978    16.564637    -4.001618    18.733224  0.048372442  -0.16358762    1.1899216    21.435457     9849.138 
   81000    1.8357589    14.766888    16.602647   -4.0109572    18.730033  0.047812443 -0.078483466    1.2239922    21.412792    9817.9297 
   82000    1.7590128    14.807924    16.566937   -3.9801763    18.737083  0.051017924  0.068384159    1.1728218    21.444997    9862.2951 
   83000    1.8081089    14.770931     16.57904   -3.9905552    18.711765  0.049720452  0.018916765    1.2055566    21.406175    9808.8297 
   84000    1.7553131    14.768494    16.523807   -4.0142012    18.739728  0.042967379  0.098277133     1.170355    21.389606    9786.0709 
   85000    1.7893588    14.738759    16.528118   -4.0289677    18.720853  0.046874093  0.070561064     1.193055    21.365391    9752.8717 
   86000    1.7977657    14.771237    16.569002   -3.9893767    18.715483  0.045130768 -0.00098767517    1.1986603    21.429191    9840.5031 
   87000     1.825132     14.77114    16.596272   -4.0149417    18.737308  0.048773599  0.047798556    1.2169068    21.405213    9807.5075 
   88000    1.7747833    14.766274    16.541058   -4.0076256    18.729044  0.044855596 -0.044818762    1.1833368    21.421519     9829.938 
   89000    1.7955794    14.771398    16.566978   -3.9970036    18.721279  0.047122978   0.13444359    1.1972026     21.38668     9782.055 
   90000    1.7878808     14.78121    16.569091   -3.9914133     18.72667  0.045953717  -0.13762407    1.1920696    21.429635    9841.1151 
   91000    1.7961247    14.806978    16.603103   -3.9812932    18.742123  0.046148645 -0.066269127    1.1975662    21.419915      9827.73 
   92000    1.7860535    14.773378    16.559431   -4.0036173    18.728089  0.048906504  0.012347282    1.1908512    21.403244    9804.8015 
   93000     1.797081    14.771695    16.568776   -3.9975836    18.722711  0.046567213  0.040087301    1.1982038    21.412105    9816.9845 
   94000    1.8038715    14.800128    16.603999   -3.9719167    18.728501  0.043542985  0.090768523    1.2027313    21.440332    9855.8595 
   95000    1.8168861    14.718643    16.535529   -4.0355037    18.705578  0.048569107 -0.037052444    1.2114088    21.393711    9791.7062 
   96000    1.7923365    14.744607    16.536944   -4.0242891    18.724063  0.044833354  0.044359066    1.1950404    21.367133    9755.2585 
   97000     1.787586    14.807237    16.594823   -3.9692548    18.730321  0.046170853   0.31067294     1.191873    21.449445     9868.432 
   98000      1.79979    14.801195    16.600985   -3.9952384    18.748182  0.048251185  -0.11851936      1.20001    21.430034    9841.6646 
   99000     1.792435    14.767704    16.560139   -3.9907972    18.712933  0.045567403  0.069536847    1.1951061    21.425262    9835.0924 
  100000    1.7792576    14.798261    16.577519   -3.9905292    18.737796  0.050994326   0.16533738      1.18632    21.411956    9816.7798 
  101000    1.7641108    14.818321    16.582432   -3.9699924    18.735244  0.053069694  0.044243518    1.1762209     21.42435    9833.8362 
  102000    1.7876847    14.773614    16.561298   -3.9982577    18.724381  0.047490154  -0.24207118    1.1919388    21.428445    9839.4756 
  103000    1.8087786    14.778039    16.586818   -4.0068162    18.736893  0.047962884  0.031612756    1.2060031    21.393055    9790.8048 
  104000    1.7987121    14.774372    16.573084    -3.999489    18.731452  0.042408837  -0.28184842    1.1992913    21.429965    9841.5704 
  105000     1.825119    14.774603    16.599722    -3.997082    18.723208   0.04847682 -0.0041439778    1.2168981    21.436834    9851.0369 
  106000    1.8052061    14.778276    16.583482   -3.9957345    18.729664  0.044346007  -0.10667722    1.2036212    21.440133    9855.5851 
  107000     1.798163    14.750098    16.548261    -4.011134    18.716871  0.044360354  0.068441105    1.1989252    21.388137     9784.054 
  108000    1.8126929    14.765609    16.578302   -4.0181904    18.738596  0.045203067  0.068570623     1.208613    21.383547    9777.7573 
  109000    1.8020084    14.798206    16.600215   -3.9716095    18.722714  0.047102123   0.15338559    1.2014891      21.4306    9842.4445 
  110000    1.7910864    14.775806    16.566893   -4.0213682    18.746425  0.050749899   0.12114725    1.1942069    21.390919    9787.8732 
  111000    1.7906746      14.7575    16.548175    -4.018679    18.727708  0.048471174  0.026956611    1.1939323      21.3982    9797.8707 
  112000    1.8239228    14.783094    16.607017   -3.9967796    18.731602  0.048271852 -0.083461993    1.2161005    21.430201     9841.895 
  113000    1.7990479    14.795104    16.594152   -3.9815974    18.731044  0.045657981   0.10071952    1.1995152    21.440255    9855.7537 
  114000    1.7822666    14.749908    16.532175   -4.0101667    18.712072  0.048003129  0.031389796    1.1883263    21.399862    9800.1546 
  115000    1.7855902    14.784184    16.569774   -3.9940424    18.730991  0.047234731 -0.025673624    1.1905423     21.41035    9814.5711 
  116000    1.7967831    14.771628    16.568411   -4.0012288    18.723717  0.049139779   0.12096449    1.1980051    21.405238    9807.5424 
  117000    1.8091388    14.795719    16.604857   -3.9898348    18.736943  0.048610312 -0.053265505    1.2062433    21.433366     9846.257 
  118000    1.7834755    14.799478    16.582953   -3.9774365     18.72988  0.047034366  0.028862221    1.1891323    21.438758    9853.6899 
  119000    1.8209793     14.78006    16.601039   -4.0087973    18.740097  0.048759792  -0.10313591     1.214138    21.409612    9813.5555 
  120000    1.7824678    14.778432      16.5609   -3.9983901     18.72907  0.047752648   0.10159584    1.1884604    21.415147    9821.1688 
  121000    1.8163874     14.75131    16.567697   -4.0200543    18.730585  0.040779614  -0.12667454    1.2110763    21.397516    9796.9318 
  122000    1.7919209    14.821538    16.613459   -3.9692775    18.742306  0.048509591  0.016328805    1.1947633    21.451056    9870.6566 
  123000    1.8185247    14.821266    16.639791   -3.9541226    18.731451     0.043938   0.12728085    1.2125014    21.457186    9879.1212 
  124000    1.7959201    14.805347    16.601267   -3.9732243    18.732318  0.046253633  0.025130285    1.1974298    21.460771    9884.0736 
  125000    1.8168444    14.747383    16.564227   -4.0309421    18.732731  0.045593688  0.073921507    1.2113811    21.375171    9766.2713 
  126000    1.8106697    14.751414    16.562083   -4.0111147    18.713258  0.049270227   0.11811176     1.207264    21.388093     9783.994 
  127000    1.8113877    14.790409    16.601797   -3.9782775    18.724208  0.044478863   0.11406402    1.2077428    21.430958    9842.9381 
  128000    1.8226245    14.820107    16.642732   -3.9687827    18.740614  0.048275757  0.041102295    1.2152349    21.443869    9860.7387 
  129000    1.7954702    14.786449    16.581919   -3.9907143    18.725503  0.051660914 -0.071353329    1.1971298    21.432875    9845.5793 
  130000     1.788656    14.762468    16.551124    -4.024521    18.736876  0.050113088  0.039404925    1.1925864    21.385591    9780.5606 
  131000     1.794709    14.759135    16.553844   -4.0150152    18.730657  0.043493494 -0.013332587    1.1966222     21.38396    9778.3237 
  132000    1.7791673    14.796562     16.57573   -3.9860621    18.735866  0.046758636  0.098016736    1.1862598    21.434768    9848.1887 
  133000    1.8340056    14.776535    16.610541   -3.9947774    18.726966  0.044346421  -0.12069157    1.2228232     21.43927    9854.3957 
  134000    1.7725011    14.782009     16.55451   -4.0085234    18.737879  0.052653136   0.02113549    1.1818151    21.403477    9805.1216 
  135000    1.7937742    14.786314    16.580088   -3.9918483    18.733914  0.044248403 -0.089839481     1.195999    21.425295    9835.1367 
  136000    1.8159054    14.789013    16.604918    -3.993615    18.735302  0.047325807 -0.031037654    1.2107549    21.433181    9846.0018 
  137000    1.7854759    14.751646    16.537122    -4.018434    18.720941   0.04913953  0.036597462    1.1904661    21.409606    9813.5479 
  138000    1.7853112    14.758454    16.543765   -4.0146669    18.728045  0.045075764   0.26550037    1.1903563    21.363185    9749.8522 
  139000    1.7895019    14.806466    16.595968   -3.9871009     18.74776  0.045806388   -0.1198723    1.1931504    21.454804    9875.8312 
  140000    1.8167243    14.772746     16.58947   -4.0178815    18.736234  0.054392926 -0.047589985    1.2113009    21.391902    9789.2227 
  141000     1.783274    14.763147    16.546421   -4.0108433    18.727922  0.046067838   0.10733772     1.188998    21.389949    9786.5422 
  142000    1.7780928    14.775713    16.553805   -4.0097524    18.735612  0.049853604  -0.02804451    1.1855434     21.40182    9802.8442 
  143000    1.8084391    14.796714    16.605153   -3.9959721    18.744138  0.048547993 -0.077059872    1.2057768    21.422268    9830.9688 
  144000    1.7781845    14.779056    16.557241   -4.0003445    18.737998  0.041402702   0.12818329    1.1856045    21.411615      9816.31 
  145000    1.7815886    14.736214    16.517802   -4.0296681    18.720769  0.045113166  0.022276678    1.1878742    21.354593    9738.0928 
  146000    1.7643729    14.727062    16.491435   -4.0407886    18.716589  0.051262201  0.038949143    1.1763956    21.378643    9771.0311 
  147000    1.7872424    14.764894    16.552136   -4.0138344    18.727695  0.051032658   -0.1160102    1.1916439    21.387669    9783.4129 
  148000    1.8137938     14.79037    16.604163   -3.9933686    18.733247  0.050491214  0.066103581     1.209347    21.449268    9868.1882 
  149000    1.8131778    14.774957    16.588135   -3.9975414    18.717086  0.055412133 -0.041243479    1.2089363    21.407191    9810.2275 
  150000    1.8026503    14.767486    16.570137   -3.9982888    18.722768  0.043007122 -0.0068297378    1.2019171    21.418623    9825.9522 
  151000    1.8107815    14.779004    16.589785   -3.9951553    18.724539  0.049619959   0.01048001    1.2073386    21.417058    9823.7987 
  152000    1.8341582    14.789489    16.623647     -3.97337    18.716551  0.046308347  -0.15781362     1.222925    21.468877    9895.2782 
  153000    1.8084704    14.793398    16.601868   -3.9865307    18.731741  0.048187277   0.10909289    1.2057977    21.445913    9863.5584 
  154000    1.7899799    14.765236    16.555216   -4.0065118    18.725726    0.0460218  -0.11295257    1.1934691    21.403464    9805.1037 
  155000    1.8007351    14.783474    16.584209   -3.9943764    18.730516  0.047333992 -0.077951218    1.2006402    21.420114    9828.0045 
  156000    1.8102819    14.819425    16.629707   -3.9544591    18.722253  0.051631258 -0.050996626    1.2070055    21.464084    9888.6518 
  157000    1.7948159    14.788688    16.583504   -3.9802685     18.71937  0.049586803 -0.016178624    1.1966935    21.451157    9870.7963 
  158000    1.8129831    14.755804    16.568787   -4.0268056    18.731679  0.050930967   0.19800345    1.2088065    21.361882    9748.0675 
  159000    1.7920711    14.765576    16.557647   -4.0053856    18.719434  0.051527958 -0.017225012    1.1948634    21.399679    9799.9029 
  160000    1.8161702    14.811499    16.627669   -3.9814802    18.746043  0.046936102  0.033565237    1.2109315    21.441335    9857.2432 
  161000    1.8034435    14.818089    16.621533   -3.9640342     18.72811  0.054013036 -0.0049497224     1.202446    21.447454    9865.6843 
  162000    1.7938786     14.77039    16.564268   -4.0216373    18.739396  0.052631434  0.013922775    1.1960686    21.374925    9765.9338 
  163000    1.7907351    14.741784    16.532519   -4.0159191    18.716867   0.04083594 -0.054716939    1.1939726    21.403102    9804.6065 
  164000    1.8248067    14.761847    16.586654   -4.0114739    18.727787  0.045533971  -0.11541859    1.2166899    21.404102    9805.9809 
  165000    1.7998546    14.771274    16.571128   -3.9953102    18.722525  0.044058555  0.046875604    1.2000531    21.427759    9838.5304 
  166000    1.8024133    14.811771    16.614184   -3.9728748    18.737512  0.047134301  0.072653179    1.2017591    21.425476    9835.3872 
  167000     1.803958    14.784415    16.588373   -3.9885839     18.72854  0.044459487  -0.18898489     1.202789      21.4265    9836.7974 
  168000    1.7649762    14.794194     16.55917   -4.0004909    18.746352  0.048332214  0.026769427    1.1767979    21.399384    9799.4978 
  169000    1.7973215    14.796494    16.593815    -3.987546    18.736013  0.048026712 -0.033156741    1.1983641    21.405497    9807.8986 
  170000    1.8125944    14.793956     16.60655    -3.985721    18.730448  0.049229498   0.10051434    1.2085473    21.444331     9861.376 
  171000    1.7970042    14.758108    16.555112   -4.0212042    18.733067  0.046244318  0.026819463    1.1981526    21.398048     9797.663 
  172000    1.8085857    14.721284    16.529869   -4.0424295    18.720264  0.043448768  -0.11998592    1.2058745    21.380254    9773.2398 
  173000      1.81132      14.7809     16.59222   -4.0005271    18.731915  0.049512247  0.091382002    1.2076976    21.402257    9803.4452 
  174000    1.7917892    14.778305    16.570094   -3.9967576    18.728518  0.046544468 -0.031239325    1.1946755    21.424042    9833.4113 
  175000     1.814098    14.752281    16.566379   -4.0341347    18.742645  0.043770596 -0.050032401    1.2095499    21.373545    9764.0429 
  176000      1.78038    14.797296    16.577676   -3.9980515    18.746651  0.048696145  -0.23653217    1.1870684    21.440623     9856.261 
  177000     1.815373    14.736654    16.552027   -4.0395198    18.726845  0.049328864 -0.098024926    1.2103999    21.377111    9768.9315 
  178000    1.7770172    14.733759    16.510776   -4.0235176    18.709207  0.048069366   0.25148729    1.1848262    21.373397    9763.8397 
  179000    1.8029861     14.76623    16.569216   -4.0085273     18.73158  0.043177445 -0.096252564     1.202141     21.42086     9829.031 
  180000    1.8153837    14.777883    16.593267   -3.9877705    18.716911  0.048742887  0.017672575    1.2104071    21.436419    9850.4651 
  181000    1.8005078    14.749965    16.550473    -4.021309      18.7213  0.049974197  0.064339003    1.2004886    21.404585    9806.6449 
  182000    1.8096679    14.748918    16.558586   -4.0384917    18.740187  0.047223157  0.023939999    1.2065961    21.396251    9795.1936 
  183000    1.8204736    14.741616     16.56209   -4.0312733    18.726786  0.046103434  0.020882953    1.2138008    21.387238    9782.8203 
  184000    1.8143099    14.742563    16.556873   -4.0151472    18.710796   0.04691442  -0.11676161    1.2096911      21.4072    9810.2397 
  185000    1.8257032    14.775461    16.601164   -3.9989806    18.729508  0.044933138 -0.063897317    1.2172876    21.419148    9826.6746 
  186000    1.7759245    14.790381    16.566306   -4.0010721    18.744225  0.047228633  0.039331685    1.1840977    21.422237    9830.9272 
  187000    1.7969306    14.766755    16.563685   -4.0062532    18.723579  0.049428927   0.15633388    1.1981035    21.385011    9779.7652 
  188000     1.769592     14.76557    16.535162   -4.0124524    18.726252  0.051770061  -0.11786072    1.1798755    21.406081    9808.7014 
  189000    1.8219001    14.765291    16.587191   -4.0156212    18.731816  0.049096433  0.071891682    1.2147519    21.395626    9794.3363 
  190000    1.7890608    14.778912    16.567973   -4.0006439    18.732028   0.04752833 -0.0076720101    1.1928563    21.410267    9814.4571 
  191000    1.7895757    14.751386    16.540962   -4.0022846     18.71108  0.042591068 -0.067799127    1.1931996    21.417164    9823.9445 
  192000    1.8162271    14.752189    16.568416   -4.0296127    18.733388  0.048414187  -0.10221324    1.2109694    21.373409    9763.8561 
  193000    1.7901352    14.777464    16.567599   -4.0047387    18.735917  0.046285606  0.050543335    1.1935727    21.409311    9813.1423 
  194000    1.8120053    14.739461    16.551466   -4.0247558    18.719166  0.045050699  -0.11454157    1.2081545    21.400955    9801.6562 
  195000        1.815    14.778301    16.593301   -4.0025991    18.734498  0.046401713  0.030902491    1.2101513    21.419887    9827.6921 
  196000    1.8240618    14.792112    16.616174   -3.9873871    18.730864  0.048635276  -0.21407322    1.2161932    21.429957    9841.5592 
  197000    1.8009499    14.760006    16.560956   -4.0144281    18.726438  0.047996803 -0.047381774    1.2007834    21.418477     9825.751 
  198000    1.7918473    14.783262    16.575109   -3.9911642    18.727701  0.046725065  0.084715072    1.1947142    21.410706    9815.0604 
  199000    1.8048752    14.794794    16.599669   -3.9867275    18.736642  0.044879557  0.057278105    1.2034005    21.430742    9842.6406 
  200000    1.8088414    14.756425    16.565267   -4.0022768    18.711904  0.046798339   0.11698816     1.206045    21.407161    9810.1861 
  201000    1.7776401    14.757283    16.534923   -4.0268506    18.736525  0.047608525 -0.027002153    1.1852415    21.375844    9767.1935 
  202000    1.8128164    14.742357    16.555173   -4.0291399    18.724311  0.047185264 -0.024634577    1.2086953    21.411421    9816.0428 
  203000    1.7887416     14.78282    16.571562   -3.9957685    18.729026  0.049562689   0.13262044    1.1926435    21.408458    9811.9686 
  204000    1.7906046    14.778068    16.568672   -3.9922502     18.71657  0.053748218 -0.052451849    1.1938856    21.412583     9817.641 
  205000    1.8215251    14.774662    16.596187   -4.0018015    18.732255  0.044208229  -0.20667773    1.2145019    21.418472    9825.7436 
  206000    1.8071792    14.748535    16.555715   -4.0074864    18.706405  0.049616786 0.0044278784    1.2049367    21.391259    9788.3403 
  207000    1.8098739    14.738784    16.548658   -4.0152499    18.709592  0.044442142 -0.078306602    1.2067335    21.418893    9826.3241 
  208000    1.8105164     14.77859    16.589107   -3.9972343    18.732647  0.043178061   0.16112136    1.2071618    21.406725    9809.5864 
  209000    1.7881449    14.773115    16.561259   -3.9927427    18.720153  0.045704477  -0.11842032    1.1922456    21.419601    9827.2979 
  210000    1.8043366    14.786217    16.590553   -4.0005716    18.739502  0.047286273   -0.1737551    1.2030415     21.41436    9820.0857 
  211000    1.8017595    14.785425    16.587185   -3.9840785    18.721294  0.048209587  -0.11906859    1.2013231    21.437117     9851.427 
  212000    1.8038601    14.741812    16.545673   -4.0235492    18.725269  0.040092293  0.062652193    1.2027238     21.36902    9757.8431 
  213000    1.7692994    14.736678    16.505977   -4.0405003    18.729988  0.047189986 -0.090446086    1.1796804     21.36826    9756.8016 
  214000    1.7997015    14.758476    16.558178   -4.0190794    18.729929  0.047627234 -0.098518213     1.199951    21.405764    9808.2657 
  215000    1.8159582    14.776376    16.592334   -3.9940326    18.727861  0.042547686   0.09193444    1.2107901    21.431244    9843.3324 
  216000    1.8234269    14.826702    16.650129   -3.9435279    18.727372  0.042857835  0.071970066    1.2157699     21.47884    9909.0606 
  217000     1.806802    14.806894    16.613696   -3.9822399    18.741304  0.047830241  0.068223288    1.2046853    21.433325    9846.1994 
  218000    1.7809013    14.786924    16.567825   -3.9873875    18.731819   0.04249289 0.0039301421     1.187416    21.445092    9862.4257 
  219000    1.8272444    14.769122    16.596366   -4.0034416    18.724601  0.047962771   0.10026664    1.2183152     21.38974    9786.2545 
  220000     1.787276    14.765269    16.552545   -4.0019519    18.717818  0.049402845  -0.15360212    1.1916663    21.444909    9862.1733 
  221000    1.8171247    14.745313    16.562438   -4.0214896    18.724719  0.042084195  0.059489096    1.2115679    21.375786    9767.1145 
  222000    1.7702349    14.755402    16.525637   -4.0114001    18.724395  0.042406635 -0.069052796    1.1803041    21.422558    9831.3682 
  223000    1.8156439    14.749976     16.56562   -4.0177058     18.72166  0.046022316  0.020289139    1.2105806     21.37505    9766.1051 
  224000    1.7884439    14.771807    16.560251   -3.9927709    18.719877  0.044700976  0.055309109     1.192445    21.434645     9848.019 
  225000    1.8253645    14.783458    16.608822   -3.9895197    18.727892  0.045085104 -0.020887125    1.2170618    21.427817    9838.6113 
  226000    1.7941231    14.777756     16.57188   -3.9929156    18.727066  0.043605542  -0.11594271    1.1962316    21.424324       9833.8 
  227000    1.7875839    14.752904    16.540487   -4.0120859    18.716586  0.048403866 -0.039814849    1.1918716    21.407271    9810.3362 
  228000    1.8081484    14.721077    16.529225   -4.0409625    18.715621  0.046418502   0.13936613     1.205583    21.346517     9727.048 
  229000    1.7813961    14.779913    16.561309   -3.9958455    18.728523  0.047235683 -0.087639042    1.1877459    21.429889    9841.4659 
  230000    1.8045983    14.800116    16.604714   -3.9852499    18.737842  0.047524017  0.022527441    1.2032159    21.450602    9870.0292 
  231000    1.7960593    14.769708    16.565768   -4.0046068    18.728639  0.045676551 -0.069291016    1.1975225    21.420855     9829.024 
  232000    1.7882816     14.75649    16.544772   -4.0261016    18.732308  0.050283202 -0.00077513563    1.1923368    21.377846    9769.9385 
  233000    1.8012873    14.762788    16.564076   -4.0228208    18.737826  0.047783261  0.027277953    1.2010084    21.380538    9773.6293 
  234000    1.8230415    14.768426    16.591468   -4.0070661    18.726965  0.048527112  0.070523888    1.2155129    21.416759    9823.3874 
  235000    1.8058378     14.73594    16.541777    -4.036792    18.730194  0.042537768  0.048843113    1.2040424    21.360049    9745.5589 
  236000    1.8028561    14.745571    16.548428   -4.0210836    18.723043  0.043612309  0.012616109    1.2020543    21.408856    9812.5157 
  237000    1.8251078    14.765007    16.590114   -4.0085752    18.724463  0.049118927  -0.12583728    1.2168907    21.413538     9818.955 
  238000     1.780662    14.762093    16.542755   -4.0122602     18.72766   0.04669334 0.00086637704    1.1872564    21.424257    9833.7082 
  239000    1.8150831     14.73147    16.546553   -4.0348669     18.71691  0.049426902  -0.15389191    1.2102066    21.372087    9762.0453 
  240000    1.7854679    14.769514    16.554982   -4.0019719    18.722432  0.049053562    -0.179622    1.1904607    21.429711    9841.2201 
  241000    1.8504201    14.759893    16.610313   -4.0039636    18.719734  0.044123113  0.084299422    1.2337676    21.412978    9818.1848 
  242000    1.8048902    14.769142    16.574033   -4.0027993    18.727812  0.044129729 -0.098267029    1.2034105     21.42934    9840.7091 
  243000    1.8058004    14.779152    16.584952   -3.9921354    18.724137  0.047150211 -0.077389504    1.2040174    21.437155    9851.4789 
  244000    1.8006744    14.824851    16.625525   -3.9704904    18.749845  0.045496654  0.046797845    1.2005997    21.463575    9887.9479 
  245000    1.7944876    14.789199    16.583686    -3.988867    18.728826  0.049239518 -0.010490097    1.1964746    21.429048    9840.3073 
  246000      1.78798    14.763862    16.551842   -4.0140696    18.726982  0.050949062 -0.0015860155    1.1921357    21.386358    9781.6136 
  247000    1.8032737    14.770782    16.574056   -3.9813734    18.706192  0.045963923  0.061118485    1.2023328    21.445654     9863.201 
  248000    1.8243817    14.788866    16.613248     -3.98139    18.724118  0.046138041 -0.061527316    1.2164065    21.450476     9869.856 
  249000    1.7941768    14.768959    16.563136   -4.0106457     18.73368  0.045924801    0.0810809    1.1962674    21.411254    9815.8139 
  250000    1.7889906    14.747552    16.536543   -4.0153088    18.717662   0.04519903  0.015179192    1.1928095    21.370116    9759.3436 
  251000    1.7461021    14.751021    16.497124   -4.0056971    18.711622   0.04509652   0.05837568    1.1642136    21.400156    9800.5581 
  252000    1.7856194    14.788962    16.574581   -3.9901769    18.734182  0.044956226    0.1498181    1.1905617    21.416117    9822.5037 
  253000    1.8088564    14.800877    16.609733    -3.968036    18.726347  0.042566073 -0.075817965     1.206055    21.463342    9887.6258 
  254000    1.7867845    14.795644    16.582428   -3.9829442    18.729493  0.049095479  0.091431411    1.1913386    21.418909    9826.3456 
  255000     1.788933    14.775539    16.564472   -3.9989775    18.728266  0.046251101   0.10204716    1.1927711    21.404178    9806.0856 
  256000    1.7846708    14.754697    16.539368   -4.0244924    18.733643  0.045545928   0.14353243    1.1899293     21.40555    9807.9709 
  257000    1.8225309    14.730722    16.553253   -4.0413217    18.727691  0.044352652  0.095186143    1.2151725    21.351051    9733.2472 
  258000    1.8176631    14.773569    16.591233   -3.9941742    18.717673  0.050070426  0.060215917    1.2119269    21.423945     9833.279 
  259000    1.8024331    14.795183    16.597616   -3.9807779    18.727243  0.048717827  0.063191213    1.2017723    21.445402    9862.8532 
  260000    1.7970693    14.772611     16.56968    -4.016272    18.740574  0.048308533 -0.079171466     1.198196     21.40587    9808.4104 
  261000    1.7754207    14.747138    16.522559   -4.0197007    18.714524  0.052314814 -0.041402182    1.1837618    21.396322    9795.2922 
  262000    1.7841362    14.764411    16.548547   -4.0108391    18.726732  0.048518392  0.050875811    1.1895728    21.381168    9774.4937 
  263000    1.7884081    14.789957    16.578365   -3.9711089     18.71451  0.046555678  0.098421325    1.1924211    21.435763    9849.5603 
  264000    1.7966313    14.828121    16.624752   -3.9695422    18.749181  0.048482166   0.15726532    1.1979039    21.440758    9856.4473 
  265000    1.8104028    14.778686    16.589089   -3.9959611    18.725913  0.048733534 -0.044848696    1.2070861    21.421878    9830.4325 
  266000    1.8028044    14.747639    16.550443   -4.0000709     18.70464  0.043069547 -0.083258025    1.2020199    21.407088    9810.0857 
  267000    1.8166633    14.770142    16.586806   -4.0000947    18.724414  0.045822505 -0.083239975    1.2112603    21.398347    9798.0732 
  268000     1.790223      14.7893    16.579523   -3.9831496    18.729537  0.042912422  0.087429672    1.1936312    21.441895    9858.0161 
  269000    1.7959074    14.801505    16.597413   -3.9753676    18.729237  0.047636068 -0.099033989    1.1974213    21.456385    9878.0141 
  270000    1.7928482    14.807721    16.600569   -3.9756918    18.738925  0.044488027   0.17399429    1.1953816     21.44506    9862.3815 
  271000    1.7876025    14.758475    16.546077   -3.9998604    18.714797  0.043538336  0.046346024     1.191884    21.417402     9824.272 
  272000    1.8064937    14.754956    16.561449   -4.0204982    18.723026  0.052427848   0.05874023    1.2044797     21.41053    9814.8186 
  273000    1.8036135    14.783702    16.587316   -3.9969681    18.731971   0.04869895 -0.0070428876    1.2025594    21.428635    9839.7377 
  274000    1.7951585    14.771975    16.567134   -4.0037091    18.728904  0.046780812 0.0052337258    1.1969219    21.398623    9798.4517 
  275000    1.7865649    14.772891    16.559456   -3.9923204    18.717812  0.047399715  0.082188412    1.1911921    21.413508    9818.9139 
  276000    1.8172941    14.800069    16.617363   -3.9890306    18.742848  0.046251991  0.067789158    1.2116809    21.425084    9834.8469 
  277000    1.7951155    14.775697    16.570812   -4.0006156    18.723715  0.052597394  0.072243837    1.1968933     21.40174    9802.7341 
  278000    1.7795543    14.749677    16.529231   -4.0260079    18.731385  0.044299665 -0.066436742    1.1865179     21.40619    9808.8512 
  279000    1.8237669    14.763351    16.587118   -4.0024161    18.718204  0.047562839   0.15189447    1.2159966    21.397402    9796.7754 
  280000    1.8043798    14.782992    16.587371   -3.9783142     18.71007  0.051235992   0.08429074    1.2030703    21.447396    9865.6044 
  281000    1.7913871     14.76718    16.558568   -4.0215846    18.745142  0.043622683   0.14386236    1.1944074    21.384537    9779.1144 
  282000    1.7854853    14.760688    16.546174   -4.0191677    18.733588  0.046268353  -0.28508844    1.1904724    21.416751    9823.3758 
  283000    1.8101028    14.769642    16.579745   -3.9894097    18.714872  0.044179671  0.097520168     1.206886    21.409423    9813.2953 
  284000    1.7939247    14.789156    16.583081   -3.9871739    18.729883  0.046446939   0.12413388    1.1960993    21.434028    9847.1684 
  285000    1.8114727    14.806353    16.617826   -3.9834259    18.744054  0.045724385    0.1017437    1.2077994    21.432439     9844.979 
  286000    1.7922684    14.782816    16.575084   -3.9940971    18.731738  0.045174942 -0.038302062    1.1949949    21.433197     9846.024 
  287000    1.8066372    14.753281    16.559919   -4.0223717    18.728609  0.047044071    0.1251686    1.2045754    21.395521    9794.1912 
  288000    1.7884929    14.766894    16.555387   -4.0107319    18.726964  0.050661967  -0.07806529    1.1924777    21.420707      9828.82 
  289000    1.8190087     14.75934    16.578348   -4.0132376    18.727153  0.045423784   0.05072916    1.2128241    21.389553    9785.9977 
  290000    1.7794751    14.766224    16.545699   -4.0067792     18.72534  0.047663126  -0.13559688     1.186465    21.401573    9802.5047 
  291000    1.7560694    14.730656    16.486725   -4.0224932    18.708872  0.044276567  0.071055609    1.1708593    21.373838    9764.4442 
  292000    1.7867937    14.755212    16.542006   -4.0291912    18.738437  0.045966017 -0.037698594    1.1913447    21.395075    9793.5793 
  293000    1.8206185    14.756718    16.577337   -4.0256315    18.734231  0.048118491   0.15275906    1.2138974    21.384023    9778.4096 
  294000     1.771152    14.753222    16.524374   -4.0083767    18.712715  0.048883827  -0.13786785    1.1809156    21.420897    9829.0816 
  295000    1.7986872    14.763632    16.562319   -4.0083119    18.722002  0.049941976   0.10263733    1.1992747    21.401246    9802.0559 
  296000    1.7790982    14.786928    16.566026   -4.0004017    18.740726  0.046603598  0.023968413    1.1862137    21.415838    9822.1192 
  297000    1.8070505    14.775722    16.582773   -4.0044066    18.726486  0.053643467  0.016683868     1.204851    21.403165    9804.6934 
  298000    1.7923203    14.794209    16.586529   -3.9774257    18.723562  0.048071949 -0.063844811    1.1950296    21.449988    9869.1821 
  299000    1.7980303     14.74739     16.54542   -4.0265753    18.725333  0.048632058   0.13549026    1.1988367     21.39165    9788.8763 
  300000    1.7568811    14.754702    16.511583   -4.0212129    18.726765  0.049149769   0.12054411    1.1714005    21.390849    9787.7776 
  301000    1.8010491    14.765314    16.566363   -3.9952839    18.719984  0.040613673   0.18290618    1.2008495     21.41118    9815.7121 
  302000    1.8125596    14.787678    16.600237    -3.998528    18.739808  0.046397974    0.1426043    1.2085241    21.410591    9814.9026 
  303000    1.7743319    14.782027    16.556359   -3.9864257       18.725  0.043453012 -0.015664231    1.1830358     21.45059    9870.0128 
  304000    1.7834776     14.77868    16.562158   -4.0099719    18.740983  0.047669155   0.18553764    1.1891337    21.378204     9770.429 
  305000    1.7901454    14.787116    16.577261   -3.9839181    18.727782  0.043251341  -0.29169946    1.1935794    21.441434    9857.3794 
  306000    1.8259243    14.778892    16.604816   -3.9980889    18.725313  0.051667653  -0.14421489     1.217435     21.42309    9832.1009 
  307000    1.7762155    14.789861    16.566077   -3.9772127    18.720097  0.046976468 -0.079911482    1.1842917    21.431426    9843.5828 
  308000    1.8232204    14.782993    16.606213   -3.9953297    18.724936  0.053386961 0.00041073346    1.2156322    21.420137    9828.0364 
  309000    1.8144716    14.784938    16.599409    -3.997117    18.734525  0.047530092  -0.26843408     1.209799    21.444292    9861.3222 
  310000    1.7860419    14.775916    16.561958   -4.0090787    18.738141  0.046853315   0.12782608    1.1908435    21.403783    9805.5427 
  311000    1.8084551    14.742775     16.55123   -4.0250138    18.722227  0.045561901 -0.032045051    1.2057875    21.386095    9781.2531 
  312000    1.8026579     14.74878    16.551437   -4.0157709    18.716775  0.047775695  0.082626259    1.2019222    21.394397     9792.648 
  313000    1.7950571    14.821699    16.616756    -3.966934    18.741937  0.046696209  -0.14315428    1.1968543    21.464034    9888.5832 
  314000    1.8122915    14.775879    16.588171   -4.0078796    18.737011  0.046747342 -0.032692645    1.2083454     21.40158    9802.5151 
  315000    1.7640639       14.785    16.549064   -3.9972522    18.737852  0.044400149   -0.1723268    1.1761897    21.429708    9841.2158 
  316000     1.788682    14.805112    16.593794   -4.0050381    18.760659  0.049490398 -0.016239779    1.1926037    21.415263    9821.3285 
  317000    1.8077817    14.774072    16.581854   -3.9945331    18.721111  0.047494407  -0.30740507    1.2053385    21.445618    9863.1512 
  318000    1.8144508    14.778814    16.593265   -3.9980468      18.7279  0.048961391  0.024602143    1.2097851    21.396012     9794.866 
  319000    1.7659023    14.787705    16.553608   -4.0056954    18.749433  0.043968192   0.08411284    1.1774154    21.395673    9794.4004 
  320000    1.8224083    14.770486    16.592895   -3.9993383    18.723967  0.045857395  0.065433454    1.2150908    21.405544    9807.9634 
  321000     1.786661    14.795539      16.5822   -3.9932528    18.740112  0.048679981 -0.064165072    1.1912562    21.428091    9838.9881 
  322000    1.7748793    14.764811     16.53969   -4.0057228    18.724045  0.046488104  0.028361885    1.1834008    21.414262    9819.9515 
  323000    1.7963738    14.800653    16.597027   -3.9862239    18.737886  0.048991229 -0.076076629    1.1977322    21.417528    9824.4457 
  324000    1.7850367    14.788763      16.5738   -3.9951949    18.738242  0.045716732 -0.097572338    1.1901733    21.433174    9845.9919 
  325000    1.7741602    14.743394    16.517554   -4.0346156    18.733009  0.045000667   0.12261101    1.1829214    21.347575    9728.4945 
  326000    1.7719549    14.770069    16.542024   -3.9989179    18.721646  0.047341196   -0.1915808     1.181451    21.439176    9854.2655 
  327000    1.7981889    14.804714    16.602903   -3.9636433    18.722337   0.04602052   0.15552919    1.1989425    21.447876    9866.2673 
  328000     1.815769    14.784951     16.60072   -4.0069175     18.73737  0.054498753 -0.033972355     1.210664    21.417674    9824.6454 
  329000    1.7965988    14.759023    16.555622   -4.0230719     18.73824  0.043855657 -0.071043827    1.1978823    21.400248    9800.6853 
  330000    1.8070859    14.766951    16.574037   -4.0053941    18.727807  0.044538077 -0.076814217    1.2048745    21.413938    9819.5054 
  331000    1.8310578    14.785264    16.616322   -3.9942288    18.729174  0.050318593 0.0020069647    1.2208578     21.42807    9838.9596 
  332000    1.7866859    14.792878    16.579564   -3.9823189    18.724674  0.050522264  -0.10534195    1.1912728    21.457644    9879.7539 
  333000    1.8335719    14.745189    16.578761    -4.026887    18.724675  0.047401513    0.1835367    1.2225341    21.374505    9765.3592 
  334000    1.7857908     14.76929     16.55508   -4.0018889    18.725987  0.045190963  -0.11191033     1.190676    21.412871    9818.0373 
  335000     1.801819    14.761714    16.563533   -4.0170543    18.738696  0.040071689 -0.090220458    1.2013628    21.403986    9805.8216 
  336000    1.7747665    14.744882    16.519649   -4.0276929    18.726883  0.045691849  0.027487574    1.1833256    21.406304    9809.0081 
  337000    1.8275081    14.745671     16.57318   -4.0237351    18.725916  0.043490644   0.16500567    1.2184911     21.38391    9778.2546 
  338000    1.8198278    14.766004    16.585832    -3.996982    18.716489  0.046496749  -0.13751831    1.2133702    21.433106    9845.8977 
  339000    1.8091799    14.772257    16.581437   -4.0023849    18.730566  0.044076251  0.017710522    1.2062707    21.396226    9795.1602 
  340000    1.7944723    14.750281    16.544753   -4.0142177    18.718903   0.04559571  -0.12279331    1.1964644    21.398368    9798.1018 
  341000    1.8066985    14.791985    16.598683    -3.987489    18.731538  0.047935835  0.096361492    1.2046162    21.423859    9833.1603 
  342000    1.8166861    14.767826    16.584512    -4.007121    18.726862  0.048084237 -0.056755032    1.2112755    21.398784    9798.6728 
  343000    1.7824554    14.788562    16.571017   -3.9875951    18.729222  0.046935152 -0.076536509    1.1884522    21.457523    9879.5868 
  344000    1.8116234     14.80237    16.613994   -3.9858381    18.735466  0.052742496  0.066863632    1.2078999    21.426195    9836.3774 
  345000    1.7951482    14.784108    16.579256   -3.9948875    18.730616  0.048379709    0.1349558    1.1969151    21.421719    9830.2136 
  346000    1.7978955     14.76071    16.558606    -4.011748    18.728753  0.043704968 -0.035381525    1.1987469    21.397081    9796.3346 
  347000    1.7958614    14.716255    16.512117   -4.0466444    18.713934  0.048966079  -0.14178719    1.1973906    21.369356    9758.3033 
  348000    1.7896269    14.769333     16.55896   -4.0006432    18.726865   0.04311108   0.13406758    1.1932338    21.396553    9795.6087 
  349000    1.8074632    14.799396    16.606859   -3.9763811    18.723162  0.052614428 -0.011221235    1.2051261    21.432003    9844.3783 
  350000    1.8155719     14.77446    16.590032   -3.9878842    18.716138  0.046205347 -0.080636997    1.2105326    21.440332    9855.8596 
  351000     1.779297    14.761264    16.540561   -4.0129842    18.730319  0.043929069 -0.093719225    1.1863463     21.39633     9795.303 
  352000    1.8348377    14.749918    16.584755   -4.0062457    18.714186  0.041977541   0.12222143     1.223378    21.396281    9795.2354 
  353000    1.7961283    14.796689    16.592818   -3.9701149    18.719457  0.047347835  -0.16905168    1.1975685    21.464863     9889.728 
  354000    1.7954949    14.768903    16.564398   -4.0082584    18.728492  0.048668797 0.0069914683    1.1971462    21.398103    9797.7378 
  355000    1.7921666     14.74677    16.538937   -4.0214715    18.723838   0.04440356  0.077658404    1.1949271    21.386658    9782.0248 
  356000    1.8162838    14.779248    16.595532   -3.9971845    18.726816  0.049617158   0.11636073    1.2110073    21.419341    9826.9402 
  357000    1.7992906    14.789369     16.58866   -3.9841098    18.726638  0.046840877  0.044105548     1.199677    21.433963    9847.0788 
  358000    1.7944692    14.758326    16.552795   -4.0163476    18.731362  0.043311537  0.068430545    1.1964624    21.399628    9799.8334 
  359000    1.7669493    14.769711     16.53666   -4.0010634    18.727701  0.043073371   0.28689222    1.1781135    21.395271    9793.8481 
  360000    1.8278834     14.77753    16.605413   -3.9942245    18.727642  0.044112739  0.021949641    1.2187413    21.444975    9862.2642 
  361000    1.8014698    14.780754    16.582223    -3.991637    18.727183  0.045208062 -0.063475915      1.20113    21.419783    9827.5489 
  362000    1.7858953     14.75963    16.545525   -4.0061158    18.721209  0.044537353   0.18666911    1.1907457    21.397467    9796.8647 
  363000    1.8090605    14.780017    16.589078   -3.9946937    18.734411  0.040300021 -0.089045787    1.2061911    21.436297    9850.2964 
  364000     1.801596    14.806826    16.608422   -3.9677697    18.730159   0.04443684  0.029570396    1.2012141    21.441066    9856.8727 
  365000    1.8025457    14.730066    16.532612   -4.0332135    18.719803  0.043476138   0.28600504    1.2018473    21.368214    9756.7388 
  366000     1.785664     14.76045    16.546114   -4.0257822    18.744219  0.042013787  0.047202095    1.1905915    21.395828    9794.6131 
  367000    1.8151762     14.78671    16.601886   -3.9970711    18.733853  0.049928568  0.027570269    1.2102688    21.433538    9846.4938 
  368000    1.7878933    14.788964    16.576858   -3.9834444    18.731662  0.040746674 -0.072827704    1.1920779    21.440142    9855.5978 
  369000    1.7891323    14.738366    16.527498   -4.0396924    18.732267  0.045791708  0.038545761     1.192904    21.364021    9750.9968 
  370000    1.8084084    14.784472     16.59288    -3.999356    18.738511   0.04531645 0.0085176845    1.2057563    21.420185    9828.1015 
  371000    1.8200365    14.804536    16.624572    -3.947448    18.708127  0.043856397  0.093794714    1.2135094    21.460974    9884.3544 
  372000    1.8035012     14.77542    16.578921   -3.9929351    18.723839  0.044516436  -0.16314906    1.2024844    21.460904    9884.2576 
  373000    1.8117697     14.75579     16.56756   -4.0251592    18.733584  0.047365229   0.15543697    1.2079974    21.391131    9788.1636 
  374000     1.776736    14.742161    16.518897   -4.0119841    18.709226  0.044919659 -0.080874811    1.1846388    21.418161    9825.3159 
  375000    1.8071692    14.763871     16.57104     -4.01078    18.724521  0.050130265  0.038277238    1.2049301     21.40887    9812.5359 
  376000    1.8251913    14.777154    16.602345   -3.9922292    18.722675  0.046707893  0.037383961    1.2169463    21.427463     9838.123 
  377000    1.7824466    14.790759    16.573205   -3.9778611    18.723874  0.044745572  0.046037689    1.1884463    21.454165     9874.949 
  378000    1.7975217    14.761482    16.559004   -4.0093358    18.726307  0.044511126  0.067897033    1.1984976    21.376464    9768.0443 
  379000    1.7712701    14.797355    16.568625   -3.9842771    18.737998  0.043634041 -0.0014139026    1.1809943    21.438294    9853.0492 
  380000    1.8301157    14.781163    16.611278   -3.9865526    18.722442  0.045273429   0.28284273    1.2202296     21.43718    9851.5135 
  381000    1.7791092    14.777392    16.556501   -3.9947496    18.721917  0.050224531 0.0034027421    1.1862211    21.435396    9849.0546 
  382000    1.7983875    14.759545    16.557933   -4.0249718    18.734285  0.050232393  0.069332329    1.1990749    21.369282    9758.2017 
  383000    1.7912273    14.765221    16.556449   -4.0045739    18.722665  0.047130893 -0.093920709    1.1943008    21.412327    9817.2902 
  384000    1.8231124    14.786537     16.60965   -3.9919966    18.733516  0.045017673 -0.0085619408    1.2155602    21.442352    9858.6457 
  385000     1.792509    14.794109    16.586618   -3.9785928    18.729696  0.043005749 -0.079525579    1.1951554    21.440489    9856.0766 
  386000    1.7929824    14.734088    16.527071   -4.0207472    18.706127  0.048708971   0.14197465     1.195471    21.392849    9790.5229 
  387000    1.8037791    14.758681    16.562461   -4.0116734    18.724217   0.04613771  -0.15183932    1.2026698    21.412826    9817.9755 
  388000    1.7830371    14.801907    16.584944   -3.9784455    18.733698  0.046654869 -0.020125717      1.18884    21.434922    9848.4012 
  389000    1.8047227    14.823408    16.628131   -3.9722834    18.751059  0.044633231   0.16790564    1.2032989    21.427709    9838.4624 
  390000    1.8134148    14.776382    16.589797   -4.0025401    18.731119  0.047803297  0.012447977    1.2090943    21.425567    9835.5121 
  391000    1.7930279    14.755582     16.54861   -4.0269429    18.733533  0.048992655  0.070712249    1.1955013    21.390892     9787.836 
  392000    1.7983546    14.761377    16.559731   -4.0221651    18.733334  0.050207349  0.035048907     1.199053    21.381846    9775.4235 
  393000    1.7989385     14.79806    16.596998   -3.9745353    18.723522  0.049072337 -0.077138699    1.1994423    21.445661     9863.211 
  394000    1.7954786    14.768835    16.564314   -3.9978905     18.72328  0.043446153   0.10399742    1.1971354    21.420883    9829.0631 
  395000    1.7395285    14.756984    16.496512   -4.0185584    18.729558  0.045984895  0.017580139    1.1598307    21.382139    9775.8254 
  396000    1.7878597    14.753428    16.541287   -4.0359936    18.743487  0.045934229  -0.04593825    1.1920554     21.37133    9761.0079 
  397000       1.7902    14.776443    16.566643   -4.0001857    18.729767  0.046862188  -0.17943452    1.1936159    21.429411    9840.8068 
  398000    1.8108326    14.778991    16.589823   -4.0011444    18.731295  0.048840655 -0.004535908    1.2073726    21.420236    9828.1721 
  399000     1.810965    14.780999    16.591964   -3.9949651    18.730878  0.045085954   0.11235365    1.2074609    21.428473    9839.5148 
  400000    1.7939152    14.768054    16.561969   -3.9959419    18.716492  0.047504272  0.088451289     1.196093     21.42084    9829.0042 
  401000    1.7872492    14.780956    16.568206   -3.9951982     18.72189  0.054264239   0.25167159    1.1916484    21.399301    9799.3838 
  402000    1.7918155    14.782435     16.57425   -3.9893356    18.723219  0.048551063 -0.040404217     1.194693    21.433436    9846.3531 
  403000    1.7751664    14.790574     16.56574   -3.9830538    18.729436  0.044191803 -0.013828567    1.1835922    21.416595    9823.1615 
  404000     1.784108    14.761877    16.545985   -4.0215132    18.734829  0.048560712  0.082542632     1.189554    21.389135    9785.4239 
  405000    1.8253455    14.748257    16.573602    -4.022697    18.723414  0.047539918 -0.035712512    1.2170491    21.366232    9754.0235 
  406000    1.7880459    14.735309    16.523355   -4.0204654    18.713192  0.042582427 -0.006854095    1.1921796    21.383429    9777.5951 
  407000    1.8106582    14.739262     16.54992   -4.0435842    18.736857  0.045988963   0.07190268    1.2072564    21.353566    9736.6881 
  408000     1.746889    14.773187    16.520076   -3.9981445    18.724104  0.047227336  0.087724198    1.1647383    21.407437    9810.5652 
  409000    1.7901978    14.778449    16.568647   -4.0022178     18.73881  0.041856415  -0.13796765    1.1936144     21.41467    9820.5123 
  410000    1.8326387    14.784573    16.617212   -3.9807247    18.722818  0.042479295 -0.00070473607    1.2219118    21.439346    9854.5008 
  411000    1.8302538    14.768154    16.598408   -3.9943724    18.718054  0.044472118  0.013396531    1.2203218    21.434522    9847.8499 
  412000    1.7959623    14.767169    16.563132   -4.0038752     18.72105  0.049994123  -0.02701085    1.1974579    21.419304    9826.8888 
  413000    1.8164877    14.795385    16.611873   -3.9886161    18.738135   0.04586561  0.092204585    1.2111432    21.413773    9819.2781 
  414000    1.7983013    14.784655    16.582956   -3.9910428    18.730009   0.04568831 -0.014697834    1.1990174    21.447019     9865.084 
  415000    1.8173303    14.777281    16.594611   -4.0054483    18.738182   0.04454723   0.28561722     1.211705     21.38684    9782.2744 
  416000    1.7637957    14.775719    16.539515   -4.0051685    18.730065  0.050821826   -0.1437859    1.1760108    21.407698    9810.9241 
  417000    1.8115549    14.736829    16.548384   -4.0423021    18.736092  0.043039342   0.15228923    1.2078543    21.367438    9755.6762 
  418000    1.7724109    14.771426    16.543837   -3.9907003    18.711415  0.050710991 0.0066406982     1.181755    21.419745    9827.4958 
  419000    1.8130149    14.765826    16.578841   -4.0104533    18.730785   0.04549416 -0.072896376    1.2088277    21.406036    9808.6393 
  420000    1.7921892    14.793627    16.585816   -3.9906438    18.735089  0.049181614 -0.023670652    1.1949421    21.424922    9834.6238 
  421000    1.8184023    14.753016    16.571418   -4.0151044    18.723078  0.045042526  0.066980175    1.2124197    21.413489    9818.8879 
  422000    1.7886855    14.765159    16.553844   -4.0118079    18.731884  0.045082687  0.085603807    1.1926061    21.390161    9786.8332 
  423000    1.8077961    14.761677    16.569473   -4.0057712    18.720893  0.046555129 -0.087513082    1.2053481    21.421207    9829.5091 
  424000    1.8313868      14.7617    16.593086   -4.0091319    18.727856  0.042975221 -0.0073540169    1.2210771    21.405311    9807.6429 
  425000    1.8042995    14.751263    16.555562    -4.014212    18.721329  0.044146235   -0.3751741    1.2030167    21.428258    9839.2179 
  426000    1.8236948    14.732418    16.556113   -4.0291477    18.717436   0.04413056  0.037753179    1.2159485    21.376364     9767.907 
  427000    1.7996216    14.780865    16.580487   -3.9932977    18.729557  0.044606466 -0.083311651    1.1998977    21.426947     9837.413 
  428000    1.7949935    14.837403    16.632397   -3.9432513    18.730321  0.050333903 -0.038489693    1.1968119    21.496103    9932.9715 
  429000    1.7905212    14.822971    16.613492   -3.9683488     18.74416  0.047160176  0.064169828      1.19383    21.431878    9844.2059 
  430000    1.8080521    14.745177    16.553229   -4.0184881    18.715227  0.048437756  0.063422363    1.2055187     21.37611    9767.5582 
  431000    1.7931573    14.759294    16.552451   -4.0047622    18.720946  0.043110789 -0.061123431    1.1955877    21.412154     9817.051 
  432000    1.8225955    14.771979    16.594575   -3.9932227    18.723053  0.042148823  -0.14846545    1.2152156    21.437394    9851.8092 
  433000    1.7995043    14.783525    16.583029   -3.9985063    18.738408  0.043622735  0.037485573    1.1998195    21.403473    9805.1167 
  434000    1.7832239    14.741174    16.524398   -4.0304328    18.729101  0.042506139  0.075255792    1.1889646     21.38516    9779.9698 
  435000    1.8015472    14.757884    16.559432   -4.0209475    18.733921  0.044911017 -0.086543748    1.2011816    21.398693    9798.5489 
  436000     1.800709    14.802902    16.603611    -3.971018    18.726121  0.047798451 -0.039197719    1.2006227    21.445601    9863.1279 
  437000    1.7913376    14.791899    16.583236    -3.985435    18.725852  0.051481806  0.071617372    1.1943744     21.42616    9836.3293 
  438000    1.7846717    14.775875    16.560547   -3.9858819    18.715939  0.045817773  0.044944237    1.1899299    21.424467    9833.9977 
  439000    1.7978122    14.801043    16.598855   -4.0064676     18.75595  0.051559797  -0.12901619    1.1986913    21.409079    9812.8224 
  440000    1.7998226    14.745058     16.54488   -4.0313794    18.729238  0.047199065  0.026784992    1.2000318    21.381878    9775.4676 
  441000    1.8052966    14.752048    16.557345   -4.0253538    18.732145  0.045257538  -0.16950857    1.2036815    21.398038    9797.6493 
  442000    1.8072941    14.757866     16.56516   -4.0113193    18.723173  0.046013045 -0.085554776    1.2050134    21.422265    9830.9657 
  443000    1.8174964    14.774153    16.591649   -3.9971456    18.727805  0.043493778    0.0383829    1.2118157    21.432586    9845.1809 
  444000    1.8033471    14.776762    16.580109   -4.0043021     18.73968  0.041384236  0.088293741    1.2023817    21.413497    9818.8986 
  445000    1.7973082    14.775401    16.572709   -3.9919739    18.723438  0.043936675   0.18000142    1.1983552    21.395854    9794.6495 
  446000    1.7630534    14.759927     16.52298   -4.0124328    18.728237  0.044122548  -0.07776795    1.1755159    21.412953    9818.1505 
  447000    1.7961718     14.77346    16.569632   -4.0018736    18.730891  0.044443154 -0.051148492    1.1975976    21.395545    9794.2241 
  448000    1.7957786    14.771238    16.567017    -4.014353     18.73745  0.048141039 -0.080419189    1.1973354    21.402093    9803.2196 
  449000     1.770255    14.764739    16.534994   -4.0033706    18.720394  0.047716297  0.012840287    1.1803175    21.402028      9803.13 
  450000    1.7940905    14.781533    16.575623   -4.0169345    18.751474  0.046993005  0.019670939    1.1962098    21.376152    9767.6159 
  451000    1.7863301     14.81005    16.596381   -3.9615912    18.730286  0.041355469  -0.02976903    1.1910356    21.471192    9898.4784 
  452000    1.8185233    14.828434    16.646957   -3.9517988    18.730697  0.049535906  0.060756472    1.2125004    21.469958    9896.7729 
  453000    1.8227637    14.761939    16.584703   -4.0254093    18.740373  0.046975623 0.0028776924    1.2153277    21.395273    9793.8517 
  454000    1.7879183    14.761392     16.54931   -3.9933057    18.706255  0.048441944 -0.050861459    1.1920945    21.408715    9812.3217 
  455000    1.8069331    14.794565    16.601499   -3.9931343     18.74425  0.043449408 -0.021657991    1.2047727    21.415264    9821.3294 
  456000     1.789196    14.790463    16.579659   -3.9875937    18.733718  0.044338772  0.022837715    1.1929464    21.425947     9836.036 
  457000    1.7809255    14.780597    16.561522   -4.0123338    18.744694  0.048236666   0.24189378    1.1874321    21.375436    9766.6349 
  458000     1.778057    14.729345    16.507402   -4.0368937    18.721938  0.044301659  -0.10407785    1.1855195    21.390106    9786.7571 
  459000    1.8187339    14.728882    16.547616   -4.0477055    18.730254  0.046332854 -0.083186168    1.2126408    21.349461    9731.0731 
  460000    1.7841894     14.77749    16.561679    -3.993868    18.725713   0.04564418  -0.16361993    1.1896083    21.412064    9816.9278 
  461000    1.7931456    14.797907    16.591053   -3.9903955    18.742404  0.045898348  0.034495737    1.1955798    21.410031     9814.132 
  462000    1.7726584    14.750481    16.523139   -4.0238521    18.729386  0.044946603 -0.086340454      1.18192    21.414774    9820.6558 
  463000    1.8199581    14.733385    16.553343   -4.0366571     18.72367  0.046371649  0.037334892    1.2134571    21.376426    9767.9913 
  464000    1.8010205    14.809629     16.61065   -3.9787548    18.738774  0.049610481  -0.12265589    1.2008305    21.447756    9866.1018 
  465000    1.8244417    14.794729    16.619171   -3.9789895    18.729129  0.044589059  -0.34736458    1.2164465    21.468816    9895.1927 
  466000    1.8150652    14.744429    16.559494   -4.0229234    18.723236  0.044117097  0.029112957    1.2101948    21.376347    9767.8835 
  467000    1.8027599    14.760026    16.562786   -3.9997455    18.716349   0.04342295  -0.20930242    1.2019902    21.428647    9839.7548 
  468000    1.8206732    14.773008    16.593681   -4.0052501    18.730064  0.048193815  0.013508739    1.2139339    21.407236    9810.2888 
  469000    1.7919774    14.770857    16.562835   -4.0133889    18.739943  0.044303037  0.070840617    1.1948009    21.402305    9803.5111 
  470000    1.8090887    14.740392    16.549481   -4.0351941    18.728039  0.047547252 -0.052278734    1.2062099    21.374261    9765.0238 
  471000    1.7577166     14.75403    16.511747   -4.0007887    18.712316  0.042503273   0.15786013    1.1719576    21.393974    9792.0668 
  472000    1.7952888    14.777186    16.572475   -3.9918844     18.72254  0.046530282 -0.060540623    1.1970088    21.409952    9814.0238 
  473000    1.8116691     14.79043    16.602099   -3.9848917    18.726371  0.048950696   0.11890557    1.2079304    21.432642    9845.2592 
  474000    1.8057042    14.773538    16.579243   -3.9857649    18.713571  0.045732066 -0.092977845    1.2039533    21.440908     9856.654 
  475000    1.8169136    14.739474    16.556388   -4.0397419    18.727591  0.051625466   0.12788641    1.2114271    21.371504    9761.2456 
  476000    1.7678902    14.751088    16.518978   -4.0162935    18.721473  0.045908433  -0.11194889    1.1787408    21.393805     9791.836 
  477000    1.8165142    14.753218    16.569732   -4.0290811    18.735814  0.046484898  0.040264024    1.2111609    21.360078    9745.5978 
  478000    1.7879223    14.787814    16.575737   -3.9776078    18.717763  0.047659523 -0.074039167    1.1920972    21.457577    9879.6608 
  479000    1.8236015    14.769522    16.593124    -4.013134    18.735771  0.046884571  0.058722729    1.2158863    21.396604    9795.6791 
  480000    1.8168552    14.734681    16.551537   -4.0287019    18.715781  0.047602696  -0.20733702    1.2113882    21.400295    9800.7497 
  481000    1.7990355    14.777183    16.576219   -3.9990748    18.725892  0.050366006  -0.01283044    1.1995069    21.395983    9794.8257 
  482000    1.7920596    14.811351    16.603411   -3.9620484    18.727827  0.045573102 -0.069233382    1.1948558    21.461901     9885.635 
  483000     1.821227    14.745595    16.566822   -4.0142487    18.719051  0.040792895 -0.0055973822    1.2143031    21.400113    9800.4999 
  484000    1.8054359    14.719008    16.524444   -4.0370319    18.707965  0.048074863  0.062163799    1.2037744    21.363354    9750.0836 
  485000    1.7973997    14.784524    16.581924   -3.9956586    18.737037  0.043146083  0.026846836    1.1984163    21.429664    9841.1557 
  486000    1.8147579    14.760534    16.575292   -3.9960898    18.715372  0.041252158    0.2461644    1.2099899    21.405325    9807.6612 
  487000    1.8019147     14.76218    16.564094   -4.0105233    18.725731  0.046971842 -0.071872224    1.2014266    21.421442    9829.8323 
  488000    1.7939487    14.759946    16.553895   -4.0275339    18.742133  0.045346706  -0.16643396    1.1961153    21.390353    9787.0963 
  489000      1.78655     14.73439     16.52094   -4.0307074     18.71937   0.04572779 -0.037457266    1.1911822    21.378971    9771.4815 
  490000     1.797415    14.747529    16.544944   -4.0247207    18.728975  0.043274149   0.18479006    1.1984264    21.364678    9751.8956 
  491000    1.8165045    14.771437    16.587941    -4.006877    18.734568  0.043745552 -0.029595711    1.2111544    21.408661    9812.2486 
  492000    1.7811549    14.760416    16.541571   -4.0031033    18.718089  0.045430644 -0.016995456    1.1875851    21.420464    9828.4859 
  493000     1.820063    14.732052    16.552115   -4.0380293    18.722346  0.047734735  0.091542975     1.213527    21.358401    9743.3025 
  494000    1.7788143    14.758082    16.536897   -4.0014219    18.716719   0.04278459 -0.059518874    1.1860245    21.427321    9837.9281 
  495000    1.8163822    14.770138     16.58652    -4.013676    18.733478  0.050335902   0.12770473    1.2110729    21.397585    9797.0263 
  496000    1.7703172    14.772119    16.542436    -4.007345    18.729959  0.049504663 -0.0073160402     1.180359    21.395138    9793.6651 
  497000    1.7885394    14.763613    16.552153   -4.0074441    18.729588  0.041469717     0.150708    1.1925086    21.382698    9776.5929 
  498000    1.8205512     14.80211    16.622661   -3.9737521    18.729144   0.04671777  -0.14408535    1.2138526    21.460072    9883.1083 
  499000    1.8070312     14.79752    16.604551   -3.9770251    18.729656  0.044889004  0.053557867    1.2048381    21.450901    9870.4429 
  500000    1.7883374    14.763342    16.551679   -4.0055962    18.719992  0.048946387  0.027456446     1.192374    21.400951    9801.6506 
  501000    1.7932597    14.765985    16.559245   -4.0141255    18.736536  0.043573998  0.012370176    1.1956559      21.4013    9802.1301 
  502000    1.8009459    14.771937    16.572883   -3.9885251    18.715853  0.044608754  0.016958642    1.2007807    21.428521    9839.5806 
  503000    1.8209716    14.788305    16.609277   -3.9933869    18.738622  0.043069885  -0.05421729    1.2141328    21.418838    9826.2477 
  504000    1.7944885    14.801056    16.595544   -3.9678948     18.72857  0.040380554 -0.054512807    1.1964752    21.465827    9891.0611 
  505000    1.8032936    14.765902    16.569196   -4.0045392    18.726357  0.044084075  0.060715353     1.202346    21.395887    9794.6948 
  506000    1.7614246    14.753791    16.515216   -4.0171007    18.726309  0.044583127 -0.034528629    1.1744299    21.399998    9800.3418 
  507000    1.8152391    14.741468    16.556708   -4.0225106    18.716745  0.047234498  -0.08472335    1.2103107    21.388466    9784.5057 
  508000    1.7939078    14.771691    16.565599   -3.9989889    18.728328   0.04235258  0.002972575    1.1960881    21.418391    9825.6334 
  509000    1.8060265     14.80462    16.610647   -3.9801995    18.740628  0.044191615  0.081782102    1.2041682     21.43927    9854.3957 
  510000    1.8257525    14.757837     16.58359   -4.0177687    18.728169  0.047436666  -0.33292826    1.2173205    21.411611    9816.3049 
  511000    1.7842216    14.774505    16.558726   -3.9986702    18.719856  0.053319236 -0.060799947    1.1896298    21.406319    9809.0282 
  512000     1.805666    14.768331    16.573997   -3.9995941    18.723942   0.04398302   0.10047279    1.2039278      21.3981     9797.734 
  513000     1.817897    14.796966    16.614863   -3.9853752    18.733641  0.048700135 -0.010468415    1.2120828    21.450382    9869.7254 
  514000      1.79696    14.774388    16.571348   -3.9968024    18.720632  0.050558248 0.0093434349    1.1981231    21.414611    9820.4316 
  515000    1.8045906    14.763698    16.568289    -4.009584    18.727948  0.045333867 -0.077868381    1.2032108    21.417871    9824.9168 
  516000    1.8011057    14.792112    16.593218    -3.986358    18.733513  0.044956835 -0.019511058    1.2008873    21.455157    9876.3185 
  517000    1.8186487    14.792029    16.610677   -3.9878952    18.733733  0.046191039 0.0030552317     1.212584    21.432154    9844.5856 
  518000    1.8107803    14.754309     16.56509   -4.0197795    18.730505  0.043584014  0.051448977    1.2073378    21.389987    9786.5941 
  519000    1.7939128    14.772989    16.566902   -4.0033283    18.727011   0.04930641 -0.020054528    1.1960914     21.39564    9794.3551 
  520000    1.7857023    14.782151    16.567853   -3.9934173    18.725386  0.050181994  -0.12820224     1.190617    21.438043    9852.7031 
  521000     1.794431    14.745456    16.539887     -4.03063    18.725856  0.050230427    0.1663598    1.1964369    21.362152    9748.4369 
  522000    1.8148981    14.762948    16.577846   -4.0176515     18.73528  0.045319371   -0.2517156    1.2100834    21.416746    9823.3683 
  523000    1.8128715    14.778409    16.591281   -3.9901853    18.721049  0.047545824  0.098663812    1.2087321    21.430646    9842.5088 
  524000    1.7832568    14.782293     16.56555    -3.981172    18.715817     0.047648 0.0013570693    1.1889865    21.436698    9850.8493 
  525000    1.7924112    14.772487    16.564898   -4.0077852     18.73511  0.045161846   0.15644491    1.1950902    21.401399    9802.2658 
  526000    1.8098689     14.77865    16.588519    -3.992989    18.727645  0.043994438  -0.10208488    1.2067301    21.429227    9840.5538 
  527000    1.7991287    14.796888    16.596016   -3.9876919    18.736311  0.048268137  -0.38003704    1.1995691    21.452924    9873.2349 
  528000    1.8297529    14.742865    16.572618   -4.0167535    18.714402   0.04521698  -0.13429737    1.2199878     21.40414    9806.0333 
  529000    1.7848152    14.742828    16.527644   -4.0171701    18.718111  0.041887587  0.020170784    1.1900255     21.40534    9807.6826 
  530000    1.8004485     14.76097    16.561418   -4.0124714    18.728202  0.045239061   0.05171586     1.200449    21.395896    9794.7063 
  531000    1.8217333    14.778494    16.600228   -3.9947271    18.727741   0.04548065 -0.088254185    1.2146407    21.413987    9819.5732 
  532000    1.7889931    14.773649    16.562642   -3.9954121    18.721372  0.047688244  -0.16662368    1.1928112    21.437279    9851.6501 
  533000    1.8165709    14.752294    16.568865    -4.013359    18.717419  0.048233817   0.15954385    1.2111987    21.387369    9783.0003 
  534000    1.7776728    14.750332    16.528004   -4.0191387    18.726717  0.042753047  -0.23995089    1.1852633    21.413602    9819.0433 
  535000    1.8044284    14.750732     16.55516   -4.0164694    18.721553  0.045648054    0.1851519    1.2031027    21.367118    9755.2372 
  536000    1.8189801    14.765014    16.583994   -4.0048387    18.728644  0.041208584 -0.078391853     1.212805    21.420139    9828.0391 
  537000    1.7916351    14.750418    16.542053   -4.0073461    18.708714  0.049050339 -0.016011929    1.1945727    21.401215    9802.0131 
  538000    1.7793914      14.7695    16.548891   -4.0201488    18.743928  0.045720439   0.15176863    1.1864092    21.376904    9768.6473 
  539000    1.8139819    14.781828     16.59581    -3.990323    18.728842  0.043309431 -0.010799608    1.2094724    21.440245    9855.7394 
  540000    1.7778725    14.791813    16.569685   -3.9701164    18.719984  0.041945565  -0.02981028    1.1853965    21.436597      9850.71 
  541000    1.8127119    14.732914    16.545626   -4.0369968    18.724956  0.044954521 -0.031549189    1.2086257     21.37956    9772.2889 
  542000    1.7826131    14.759719    16.542333   -4.0058464    18.717228  0.048337915  -0.24938627    1.1885573    21.415486    9821.6355 
  543000    1.8131921    14.784249    16.597441   -4.0090669    18.741728  0.051588105   0.12735565    1.2089458    21.381104    9774.4059 
  544000    1.7697035    14.779321    16.549024   -3.9864139    18.723757  0.041977717  0.064389771    1.1799498    21.448648    9867.3324 
  545000    1.8237909     14.76087    16.584661   -4.0170683    18.727181  0.050758052  0.092154854    1.2160126    21.372252    9762.2713 
  546000    1.7900415    14.769124    16.559165   -4.0108428    18.733419  0.046547058  -0.13988149    1.1935102    21.415501    9821.6562 
  547000    1.8184131    14.769308    16.587722     -4.01013    18.736333  0.043105625  0.067839484     1.212427    21.396566    9795.6263 
  548000    1.8265404    14.767383    16.593923   -4.0019577    18.721472   0.04786874 -0.077580749    1.2178459    21.425307    9835.1542 
  549000     1.790964    14.765902    16.556866    -4.015534    18.735166  0.046270068    0.2029775    1.1941253    21.386617     9781.969 
  550000    1.7838524    14.736978     16.52083   -4.0236173    18.714276  0.046319184  -0.10464878    1.1893836    21.406523    9809.3083 
  551000    1.8230074    14.730318    16.553325   -4.0429015    18.730316  0.042902573   0.19907042    1.2154902    21.350528    9732.5326 
  552000     1.796546    14.777117    16.573663   -3.9864498    18.713013  0.050553552  -0.13455208    1.1978471    21.434558    9847.8998 
  553000    1.7888705    14.808068    16.596939   -3.9737811    18.735148  0.046701212 -0.051871186    1.1927294    21.440918    9856.6681 
  554000     1.781054    14.782276     16.56333   -4.0056616     18.74182  0.046116984   0.22451385    1.1875178    21.401496    9802.3994 
  555000    1.7906517    14.721445    16.512096   -4.0436117    18.717618  0.047438504 -0.015175618     1.193917    21.370216    9759.4818 
[...]
 9867000    1.8057319    14.707716    16.513448   -4.0441014    18.715867  0.035949759   -0.2030039    1.2039717    21.370647    9760.0719 
 9868000    1.7956264    14.741926    16.537552   -4.0241822    18.730089  0.036018852 -0.0082754134    1.1972339    21.389432     9785.832 
 9869000    1.8164879    14.769425    16.585913   -4.0128694    18.746694  0.035600888 -0.0027538737    1.2111433    21.404067     9805.933 
 9870000    1.7831912    14.742679     16.52587   -4.0175431     18.72392  0.036302834  -0.12606948    1.1889427    21.414233    9819.9112 
 9871000    1.8049827    14.701525    16.506508   -4.0551263    18.723878  0.032773071  0.098988718    1.2034722    21.343393    9722.7783 
 9872000    1.7778665    14.720166    16.498033   -4.0525227    18.736187  0.036501552 -0.092612476    1.1853925    21.372158    9762.1426 
 9873000    1.7823333     14.75186    16.534194   -4.0227198    18.738911  0.035669382  0.079540195    1.1883708    21.406668    9809.5082 
 9874000    1.8129961    14.743737    16.556733   -4.0231899    18.727237   0.03969032  0.034629453    1.2088152    21.374088    9764.7877 
 9875000    1.7986762    14.692931    16.491607   -4.0665881    18.719939    0.0395803 -0.096496341    1.1992674    21.370723    9760.1761 
 9876000    1.8160239     14.72383    16.539854   -4.0517826     18.73637   0.03924284 0.0092274933    1.2108339    21.379278    9771.9022 
 9877000    1.7885172    14.723091    16.511608    -4.048878    18.734975  0.036994039   0.16751537    1.1924939    21.371811    9761.6662 
 9878000    1.7813935    14.681679    16.463072   -4.0740525     18.72356  0.032171509   0.15388706    1.1877441    21.319589    9690.2829 
 9879000    1.7965345    14.742521    16.539055   -4.0279038    18.734655  0.035769195  0.012011374    1.1978394    21.406765    9809.6412 
 9880000    1.8253308    14.745996    16.571327   -4.0239857    18.732869  0.037112512  -0.13753697    1.2170394    21.414186    9819.8461 
 9881000    1.8066663     14.72669    16.533356   -4.0334722    18.725792  0.034370628  -0.32834579    1.2045947    21.425021    9834.7599 
 9882000    1.7810079    14.732076    16.513084   -4.0538281    18.750876  0.035028239  0.094655798    1.1874871    21.373438    9763.8959 
 9883000    1.8112473    14.709101    16.520349   -4.0593949    18.733154  0.035342571 0.0089576977    1.2076492    21.344631    9724.4702 
 9884000    1.7868322    14.720935    16.507767   -4.0390192    18.722326  0.037628603   0.14732829    1.1913704    21.393387    9791.2617 
 9885000    1.8000279    14.757155    16.557183   -3.9984598    18.719027  0.036587408  0.012514719    1.2001686    21.428107    9839.0103 
 9886000    1.8071098    14.745108    16.552217   -4.0307772    18.737854  0.038030297   0.11212725    1.2048905    21.403953    9805.7761 
 9887000     1.818291    14.709294    16.527585   -4.0396385    18.716118  0.032815283  -0.02817799    1.2123455    21.393038    9790.7825 
 9888000    1.7970269    14.726891    16.523918   -4.0294972    18.719309  0.037078845 -0.032199168    1.1981677    21.398113    9797.7516 
 9889000    1.8152786    14.734789    16.550067   -4.0369012    18.735249  0.036441193  -0.04923854     1.210337    21.369206    9758.0979 
 9890000    1.7815725    14.720324    16.501896   -4.0421454     18.72833  0.034139765 -0.033535363    1.1878635    21.386442    9781.7293 
 9891000     1.791134    14.719181    16.510315   -4.0483875    18.727628   0.03994065 -0.064324934    1.1942386    21.357922    9742.6481 
 9892000    1.8161316    14.753408     16.56954   -4.0049468    18.719393  0.038961716  -0.10409421    1.2109057    21.411964    9816.7904 
 9893000     1.790184    14.733406     16.52359   -4.0299546    18.722586  0.040774344    0.1058706    1.1936052    21.386373    9781.6336 
 9894000    1.8069683    14.711124    16.518092   -4.0577704    18.733001  0.035893702  -0.11139428    1.2047961    21.373564    9764.0683 
 9895000    1.7875876    14.702676    16.490264   -4.0523244    18.718814   0.03618602 -0.027716849     1.191874     21.37453    9765.3929 
 9896000     1.788653    14.710581    16.499234   -4.0685276    18.742612  0.036497024   0.08920685    1.1925844    21.352767    9735.5946 
 9897000     1.793021    14.722131    16.515152   -4.0416815    18.729648  0.034164334  -0.12049258    1.1954967    21.390096    9786.7431 
 9898000     1.815647    14.756103     16.57175   -4.0100892    18.733079  0.033113179   0.13135409    1.2105826    21.385542    9780.4935 
 9899000    1.7941072    14.753847    16.547955   -4.0162364    18.730942  0.039141944  -0.16491984     1.196221    21.422048    9830.6659 
 9900000    1.7859413    14.727413    16.513354   -4.0427754    18.735688  0.034500661 -0.059690497    1.1907764     21.35525    9738.9916 
 9901000    1.7884817    14.705013    16.493495   -4.0468563    18.716085  0.035784234  -0.13057371    1.1924702    21.387042    9782.5523 
 9902000    1.8151044    14.699385    16.514489   -4.0530117     18.71669  0.035706481   0.11178374    1.2102209    21.345145    9725.1722 
 9903000    1.7860711     14.75145    16.537521   -4.0216248    18.735184   0.03789083  -0.17661082    1.1908629    21.412432    9817.4347 
 9904000    1.8176036    14.716255    16.533858   -4.0515517    18.729819  0.037987704  0.089728497    1.2118872    21.357256    9741.7359 
 9905000    1.7929474    14.731903    16.524851   -4.0240548    18.723351  0.032607689 -0.068410182    1.1954477    21.403677    9805.3969 
 9906000      1.81974    14.728672    16.548412   -4.0347744    18.722371  0.041075399  0.024124434    1.2133116    21.389876    9786.4415 
 9907000    1.7664609    14.723576    16.490037   -4.0479992    18.736237  0.035338619  -0.10706974    1.1777878     21.37831    9770.5748 
 9908000    1.8074546    14.711113    16.518568   -4.0590941    18.731318  0.038889849   0.14110341    1.2051204    21.336288    9713.0719 
 9909000    1.7472456    14.743976    16.491222   -4.0159782    18.719074  0.040879693 -0.094880142     1.164976    21.424491    9834.0306 
 9910000    1.8033437    14.744896    16.548239   -4.0215012    18.731038  0.035358626  0.029396112    1.2023794    21.389129    9785.4166 
 9911000    1.7988151    14.712142    16.510958   -4.0384975    18.711227  0.039412794 -0.033677893      1.19936    21.386406    9781.6797 
 9912000    1.8321067    14.716527    16.548634    -4.042449    18.721646  0.037329379   0.24304022    1.2215572    21.353605    9736.7406 
 9913000     1.796213    14.735401    16.531614   -4.0133259    18.711204  0.037522898  -0.14482799     1.197625    21.428266    9839.2291 
 9914000    1.8364453    14.732556    16.569001   -4.0187256    18.714089  0.037192162  -0.02868362    1.2244499    21.383041    9777.0632 
 9915000    1.7924539    14.725374    16.517828   -4.0342022    18.726028  0.033547864 -0.092928144    1.1951187    21.406292    9808.9915 
 9916000    1.8228678     14.70238    16.525248   -4.0557537    18.724761  0.033373335 -0.0054122051    1.2153971     21.37063    9760.0488 
 9917000    1.7963645    14.732485    16.528849   -4.0320841    18.727875  0.036693901  0.054270529     1.197726     21.38911    9785.3896 
 9918000    1.8065755    14.717452    16.524028   -4.0505375    18.733417  0.034572669   0.03863484    1.2045342    21.365343    9752.8072 
 9919000    1.7592437    14.743067     16.50231   -4.0397489    18.749004  0.033811591  0.030319366    1.1729758    21.366575    9754.4944 
 9920000    1.8031076    14.727318    16.530425   -4.0441936    18.737308  0.034203101   0.27589886     1.202222     21.34809    9729.1984 
 9921000     1.799077    14.739051    16.538128   -4.0164653    18.719173  0.036343124  0.086425204    1.1995346    21.404849     9807.007 
 9922000    1.7655473    14.737668    16.503215   -4.0262833    18.723163  0.040788211   0.15494059    1.1771787    21.385176     9779.991 
 9923000    1.8067729    14.753077     16.55985   -4.0166333    18.727598  0.042111952 -0.0038003709    1.2046659    21.408786    9812.4193 
 9924000    1.7797361     14.76141    16.541146   -4.0254283    18.745284  0.041553766 -0.028322933    1.1866391    21.390007    9786.6215 
 9925000    1.7733555    14.705226    16.478581   -4.0489878    18.716111  0.038102165  0.073790192    1.1823848    21.358251    9743.0975 
 9926000     1.784078    14.734149    16.518227   -4.0177679    18.713298  0.038618334  0.038494498     1.189534    21.396175    9795.0895 
 9927000    1.8081134    14.761381    16.569494   -4.0074583     18.73154  0.037299202 -0.071543759    1.2055596    21.431673    9843.9229 
 9928000    1.8090316    14.720228     16.52926   -4.0342252    18.718376  0.036077752  -0.13680604    1.2061718    21.379521    9772.2349 
 9929000    1.7954649    14.736299    16.531764   -4.0287104    18.729922  0.035087846  -0.17089064    1.1971262    21.388282    9784.2537 
 9930000    1.7994515    14.738294    16.537745   -4.0341179    18.734933  0.037478833 -0.0043007551    1.1997843    21.374497    9765.3477 
 9931000    1.7922597    14.709639    16.501899   -4.0520348    18.724775  0.036898676  -0.16273284    1.1949892    21.384935    9779.6604 
 9932000    1.8043462    14.715805    16.520151   -4.0507772    18.731034  0.035547612  0.016192243    1.2030479     21.35713    9741.5642 
 9933000    1.7817519    14.706044    16.487796   -4.0567315    18.725525  0.037250302 -0.059098146    1.1879831    21.369288    9758.2103 
 9934000    1.7855483    14.742397    16.527945   -4.0243002    18.730125  0.036571886 0.0029262987    1.1905143     21.38096    9774.2088 
 9935000    1.8200483    14.740504    16.560553   -4.0216337    18.723554   0.03858459 -0.065040054    1.2135172    21.403211     9804.756 
 9936000    1.7836786    14.756933    16.540611   -4.0174429    18.738148  0.036228016  0.046309902    1.1892678    21.393205    9791.0118 
 9937000    1.7966037    14.741413    16.538017   -4.0276587    18.728494  0.040577565  -0.13034452    1.1978855    21.409403    9813.2687 
 9938000    1.8274103    14.766984    16.594394   -4.0121368    18.740777  0.038343378 -0.028347447    1.2184258     21.40258    9803.8892 
 9939000     1.785184    14.747057    16.532241   -4.0090906    18.721468  0.034679065  -0.16720555    1.1902715    21.429538     9840.982 
 9940000    1.8102518    14.709418     16.51967   -4.0535282    18.730497  0.032449686  -0.10353358    1.2069854    21.368912    9757.6942 
 9941000    1.7875859    14.711162    16.498748    -4.037167    18.720057  0.028272039   0.01063948    1.1918729    21.389521    9785.9546 
 9942000    1.8290836    14.710251    16.539335   -4.0619218    18.739023  0.033149957    0.0182555    1.2195415    21.369626    9758.6726 
 9943000    1.7823666    14.724646    16.507012   -4.0449043    18.733258  0.036291954  -0.11128636     1.188393    21.401753    9802.7528 
 9944000    1.8038271    14.751284    16.555111   -4.0328865    18.745106  0.039063912 -0.047952755    1.2027017    21.370258    9759.5389 
 9945000    1.7689845    14.730099    16.499084    -4.014506     18.70769  0.036915172  -0.19579573    1.1794704    21.420474       9828.5 
 9946000    1.8115793    14.708814    16.520393   -4.0664192    18.739295  0.035938409  0.041764534    1.2078705    21.343151    9722.4472 
 9947000    1.8113125    14.703649    16.514961   -4.0467857    18.714504  0.035930397  0.034866459    1.2076926    21.371697    9761.5098 
 9948000    1.7911959     14.75491    16.546106   -4.0122926     18.73112  0.036082802   0.23916984    1.1942799    21.400512    9801.0481 
 9949000    1.7784595    14.737713    16.516172   -4.0119982    18.715042  0.034669317 -0.0095009905    1.1857879    21.409539    9813.4547 
 9950000    1.8096349    14.759768    16.569403   -4.0129305     18.73155   0.04114853  0.010772888    1.2065741    21.397019    9796.2488 
 9951000    1.7777218    14.745655    16.523377   -4.0093561     18.72049   0.03452115   0.11068508     1.185296    21.406151     9808.797 
 9952000    1.8165947    14.705948    16.522543   -4.0553738      18.7249  0.036422233    0.2100018    1.2112146    21.361357    9747.3495 
 9953000    1.7966845    14.699067    16.495751   -4.0575731    18.721842  0.034798217 -0.080202185    1.1979394    21.366151    9753.9124 
 9954000    1.7840547    14.711706    16.495761    -4.048728    18.725588  0.034845603 -0.045029917    1.1895185    21.369042    9757.8735 
 9955000    1.7972593    14.752966    16.550226   -4.0181504    18.733892  0.037224455  0.092230075    1.1983227    21.386612    9781.9619 
 9956000    1.7857284    14.722537    16.508265   -4.0491893    18.733285  0.038441551  -0.19864968    1.1906344    21.371568    9761.3334 
 9957000    1.8085274     14.69357    16.502097   -4.0576645     18.71361   0.03762487 -0.078782961    1.2058357    21.357998     9742.752 
 9958000    1.8187667     14.72282    16.541587   -4.0404564    18.729097  0.034179747 -0.085075454    1.2126627    21.380339    9773.3575 
 9959000    1.8018152    14.723566    16.525382   -4.0408629    18.725371  0.039058002 -0.061676225    1.2013603    21.379979    9772.8638 
 9960000    1.8175712    14.716603    16.534175   -4.0410562    18.722696  0.034963676  0.063940911    1.2118656    21.364129     9751.144 
 9961000    1.7992686    14.686009    16.485277    -4.061829    18.710343  0.037494533   0.06668784    1.1996624    21.370087    9759.3051 
 9962000    1.8124682    14.706419    16.518888   -4.0555573    18.728959  0.033018134 -0.059812901    1.2084632    21.356427    9740.6018 
 9963000    1.7965801    14.773819    16.570399   -3.9875221    18.718988  0.042353608  0.018904323    1.1978698    21.424676    9834.2845 
 9964000    1.8266463    14.756773     16.58342    -4.006271    18.724464  0.038580763  -0.18749801    1.2179164    21.430807    9842.7296 
 9965000    1.7961099    14.726759    16.522869    -4.052917    18.742727   0.03694887  0.015785815    1.1975563    21.365342    9752.8048 
 9966000     1.804934    14.686441    16.491375   -4.0629294    18.712636  0.036734465   0.12117556    1.2034398    21.346753    9727.3711 
 9967000    1.7911082    14.745987    16.537095   -4.0282183    18.737154  0.037050804  -0.19650878    1.1942214    21.404265    9806.2051 
 9968000    1.7978667    14.757531    16.555397   -4.0162727     18.73762  0.036183897 -0.026120839    1.1987277    21.414628    9820.4543 
 9969000    1.7726907    14.741679     16.51437   -4.0319596    18.738259  0.035379504 -0.033749992    1.1819416     21.38292    9776.8974 
 9970000    1.7961209    14.658532    16.454653   -4.0899459    18.712216  0.036261983  -0.11807429    1.1975636    21.307299    9673.5343 
 9971000    1.7938819    14.697438     16.49132   -4.0497789    18.713841   0.03337556 -0.055439943    1.1960708    21.370924     9760.451 
 9972000    1.8053868    14.732735    16.538122   -4.0254266    18.724254  0.033908336 -0.068220268    1.2037416    21.401225    9802.0275 
 9973000    1.7828493    14.744409    16.527259   -4.0218048    18.731431  0.034783456   0.11829896    1.1887148    21.374442    9765.2719 
 9974000    1.7952857    14.739992    16.535278   -4.0174121    18.724522  0.032882695   0.14746657    1.1970067    21.396455     9795.475 
 9975000      1.79708    14.735706    16.532786   -4.0339396    18.730385   0.03926084  0.048257804    1.1982031    21.390921    9787.8763 
 9976000    1.7633277    14.700366    16.463694   -4.0571969    18.721205   0.03635824  -0.13740976    1.1756988    21.359137    9744.3108 
 9977000     1.788538    14.689598    16.478136   -4.0728932    18.725765  0.036726091   0.23775271    1.1925077    21.313604     9682.125 
 9978000    1.7785716    14.736896    16.515468   -4.0167053    18.720139  0.033462478  -0.10542892    1.1858626    21.410596    9814.9089 
 9979000    1.8077284     14.74061    16.548338   -4.0226672    18.725824  0.037453006  0.038864901    1.2053029    21.410247    9814.4295 
 9980000    1.7737505     14.74922    16.522971   -4.0143266    18.723142   0.04040483   0.10045674    1.1826481    21.390272    9786.9844 
 9981000    1.8037806    14.705541    16.509321   -4.0438933    18.713401  0.036032766   0.02286472    1.2026707    21.373922    9764.5591 
 9982000    1.8158638    14.712863    16.528727   -4.0516679     18.72493  0.039600752  -0.12943454    1.2107272    21.364967     9752.291 
 9983000     1.820149    14.699887    16.520036   -4.0570597    18.718073   0.03887316 -0.078829778    1.2135844    21.377089    9768.9003 
 9984000    1.8225398    14.737799    16.560339    -4.038388     18.73773  0.038457463  0.011355526    1.2151784    21.386251    9781.4664 
 9985000    1.8208445    14.720708    16.541552   -4.0391637    18.719802  0.040069737  -0.10691717    1.2140481    21.389348    9785.7165 
 9986000    1.8197046    14.735254    16.554958   -4.0326757    18.727519  0.040410255  0.011068331    1.2132881    21.391051    9788.0538 
 9987000     1.770559    14.738261     16.50882   -4.0240259      18.7236  0.038686786  0.083742309    1.1805202    21.391257    9788.3376 
 9988000    1.7993716    14.712226    16.511597   -4.0492247    18.727815  0.033635852   0.24427758     1.199731     21.33707    9714.1403 
 9989000    1.7999834    14.727161    16.527144   -4.0357752    18.725417  0.037518779 -0.085070424    1.2001389    21.399662    9799.8802 
 9990000     1.817357    14.740338    16.557695   -4.0098952    18.712938  0.037294996 -0.029586427    1.2117228    21.416496     9823.025 
 9991000    1.7923994    14.726928    16.519327   -4.0437203    18.733098  0.037549815  0.013721908    1.1950823    21.370515    9759.8913 
 9992000    1.7601732    14.700218    16.460391   -4.0540732    18.717198  0.037092955  -0.17197336    1.1735955    21.364592    9751.7777 
 9993000    1.8105872    14.702606    16.513194   -4.0574209    18.720515  0.039512059 -0.014201939     1.207209    21.350343    9732.2794 
 9994000     1.776956    14.736697    16.513653   -4.0277276      18.7238  0.040624476   0.25881867    1.1847854    21.380264    9773.2545 
 9995000    1.8227043    14.734275    16.556979   -4.0233831    18.718577  0.039080423  -0.11688557    1.2152881    21.391113    9788.1396 
 9996000    1.7886914    14.741998    16.530689   -4.0216158    18.725054  0.038559702 -0.035220096      1.19261    21.400285    9800.7359 
 9997000    1.7783742    14.732889    16.511263   -4.0344745    18.726159  0.041204538 -0.0075170601     1.185731    21.357299    9741.7951 
 9998000    1.7771389    14.746475    16.523614     -4.03176     18.73606  0.042174363   0.14584011    1.1849074     21.37383    9764.4338 
 9999000    1.7886035    14.748425    16.537028   -4.0082018     18.71474  0.041886288 -0.066575356    1.1925514    21.415028    9821.0054 
10000000    1.8164083    14.769536    16.585944   -4.0072068    18.739185  0.037557455  0.026457353    1.2110903    21.411631    9816.3319 
Loop time of 16139.3 on 8 procs for 10000000 steps with 8000 atoms

Performance: 107068.099 tau/day, 619.607 timesteps/s
99.6% CPU use with 8 MPI tasks x no OpenMP threads

MPI task timing breakdown:
Section |  min time  |  avg time  |  max time  |%varavg| %total
---------------------------------------------------------------
Pair    | 10846      | 10984      | 11149      |  77.7 | 68.06
Bond    | 611.21     | 627.96     | 669.31     |  70.3 |  3.89
Neigh   | 1838       | 1838.6     | 1839.7     |   1.4 | 11.39
Comm    | 1317.7     | 1519.4     | 1675.4     | 247.0 |  9.41
Output  | 159.04     | 159.06     | 159.13     |   0.2 |  0.99
Modify  | 904.14     | 912.03     | 923.38     |  23.8 |  5.65
Other   |            | 98.4       |            |       |  0.61

Nlocal:    1000 ave 1024 max 986 min
Histogram: 2 2 0 1 1 0 1 0 0 1
Nghost:    2534.75 ave 2549 max 2508 min
Histogram: 1 0 0 1 0 1 1 0 2 2
Neighs:    35985 ave 37717 max 34984 min
Histogram: 2 1 1 1 1 0 1 0 0 1

Total # of neighbors = 287880
Ave neighs/atom = 35.985
Ave special neighs/atom = 1.8
Neighbor list builds = 647967
Dangerous builds = 31
Total wall time: 4:28:59
