8000
Atoms. Timestep: 10000000
1 -0.684945 -7.66218 -7.50826
1 -1.4273 -7.10723 -7.69966
1 -1.72253 -6.76851 -8.55702
1 -1.63514 -6.29139 -9.39194
1 -2.36817 -6.74092 -9.75279
1 -1.98133 -6.19414 -10.4371
1 -2.56066 -5.5411 -10.0703
1 -1.86215 -4.836 -10.5654
1 -1.62332 -5.14284 -9.63894
1 -0.920628 -5.23171 -10.2801
1 4.51165 0.490433 -3.28173
1 5.33427 0.125612 -3.26583
1 5.55332 0.809102 -3.97418
1 5.72389 1.26904 -4.73484
1 5.94453 0.590608 -5.30971
1 5.21778 0.715175 -5.98554
1 4.50396 0.0857332 -6.10431
1 4.2203 0.667008 -6.78925
1 4.00048 -0.096362 -7.27131
1 3.92241 0.799427 -7.86139
1 8.49349 10.2613 5.1672
1 8.64695 9.90923 4.20994
1 9.56981 10.2349 4.16813
1 10.3755 9.92675 4.5865
1 10.3766 -10.5018 4.64487
1 -10.5471 -9.80015 4.9514
1 -10.0578 -8.92731 4.98672
1 -9.9826 -8.18826 4.36694
1 -9.49356 -7.35783 4.40203
1 -10.129 -7.30261 3.74733
1 -4.8186 2.67414 4.48087
1 -4.2041 3.00001 3.80788
1 -4.35667 3.7483 4.3823
1 -3.6126 3.40532 4.81358
1 -3.4261 3.64658 5.68381
1 -2.51396 3.44558 5.7799
1 -1.95383 2.87202 5.24368
1 -1.81359 3.18645 4.3137
1 -1.42981 2.71235 3.59446
1 -1.86891 3.49638 3.25889
1 5.68365 9.09883 9.46979
1 6.3705 9.12602 10.1464
1 7.27135 9.60044 10.2937
1 7.56988 10.578 10.3959
1 8.08047 9.8887 -10.5447
1 8.53124 9.47032 10.0672
1 8.88945 10.3365 9.76277
1 9.5718 -10.7065 9.15068
1 9.97582 10.534 8.33568
1 9.43118 10.1002 7.71694
1 9.98079 4.53402 -3.64901
1 9.84347 5.46294 -3.52683
1 10.1189 5.01367 -2.6852
1 9.13375 4.86219 -2.81683
1 8.83442 5.62199 -2.30646
1 8.1853 4.89956 -2.41021
1 7.21337 4.66495 -2.29369
1 6.81476 4.55834 -1.42806
1 7.02246 3.63764 -1.25592
1 6.39654 3.66251 -0.511088
1 1.28314 -0.281977 -5.97508
1 1.03247 -0.10494 -6.92821
1 0.326117 0.0950589 -7.54514
1 1.23761 0.417279 -7.82587
1 1.17543 1.04207 -7.14965
1 2.07786 0.852476 -6.8179
1 2.44439 0.0747126 -6.34341
1 2.52745 -0.255765 -7.31535
1 2.31675 0.480954 -7.88208
1 2.23157 0.857096 -8.72823
1 -4.06821 3.03969 -5.256
1 -4.6879 3.47653 -5.75189
1 -4.34921 3.17271 -6.63299
1 -3.63577 2.53106 -6.51048
1 -2.84691 2.99163 -6.83512
1 -2.15353 2.2317 -6.71888
1 -1.68336 1.39285 -6.60094
1 -2.44923 1.49628 -6.02897
1 -1.58206 1.63038 -5.60562
1 -1.70577 0.635238 -5.63954
1 8.09239 8.98016 9.07071
1 8.85974 9.58302 9.01866
1 8.7037 9.37593 7.94662
1 8.9694 8.50401 8.18933
1 9.56316 8.28015 7.38328
1 9.78076 8.16439 6.38716
1 10.5962 7.72867 6.66442
1 10.4926 7.5747 7.59895
1 10.571 8.52834 7.53196
1 -10.0139 8.20113 7.23677
1 -6.75508 -3.44036 7.10041
1 -7.50416 -3.55304 7.75925
1 -6.76137 -3.59434 8.41814
1 -6.34949 -3.38773 9.28666
1 -5.7167 -3.70402 8.61037
1 -5.12733 -3.8441 7.77747
1 -5.98577 -4.0954 7.23959
1 -5.9855 -4.93965 7.80685
1 -6.16712 -5.57089 7.17929
1 -6.52502 -5.79519 8.0527
1 3.49044 5.035 -2.71045
1 3.60972 4.08103 -2.78841
1 3.45679 4.08528 -3.81506
1 2.77947 3.7608 -4.40745
1 3.60428 3.51837 -4.76978
1 3.73754 2.4921 -4.86235
1 2.8538 2.61611 -4.73846
1 2.92089 2.59098 -3.78979
1 2.95024 3.4061 -3.17878
1 2.13237 3.58338 -3.5732
1 3.01974 1.99163 -1.19782
1 3.71289 1.65346 -1.85679
1 2.94645 1.25231 -2.30987
1 2.36583 1.95793 -2.52379
1 3.25763 2.05569 -2.89336
1 3.27745 2.79349 -2.30241
1 3.2663 3.041 -1.38941
1 4.15029 2.68215 -1.53876
1 4.24929 2.32891 -2.41686
1 3.9859 2.81455 -3.22429
1 3.35072 -3.20293 9.97628
1 4.2103 -3.22541 9.61373
1 3.53873 -3.55147 9.02705
1 2.80846 -3.0579 8.78522
1 2.24723 -2.48024 8.33651
1 2.53024 -2.28598 7.39826
1 2.71843 -2.95269 6.69069
1 2.8659 -3.55556 6.01544
1 2.99792 -4.40044 5.61606
1 3.5564 -3.81397 5.07699
1 -5.07228 6.34808 3.1832
1 -5.3953 7.12476 3.67205
1 -5.65038 6.3374 4.17623
1 -5.27044 5.47851 3.77483
1 -4.68501 5.65292 4.55035
1 -4.24013 5.86795 3.71451
1 -3.69465 6.35308 3.05338
1 -3.19112 6.80585 2.38011
1 -2.79896 6.012 1.97203
1 -3.71562 5.78539 1.78014
1 -4.72035 -0.253859 5.20319
1 -4.75607 -0.470422 6.11837
1 -4.17313 -1.13454 6.20039
1 -4.30735 -2.01402 5.82983
1 -4.13671 -2.84788 5.2946
1 -4.20639 -2.87804 4.27819
1 -3.37314 -2.49571 4.66745
1 -4.00449 -1.77299 4.70132
1 -3.92345 -0.801375 4.8572
1 -3.23022 -0.363597 5.54479
1 -1.62995 -5.91706 0.230537
1 -2.28997 -5.25911 -0.0999133
1 -2.23018 -4.46512 0.457784
1 -2.38273 -3.74452 -0.227799
1 -1.80807 -3.72832 -0.992358
1 -2.7002 -3.42025 -1.07679
1 -2.96958 -2.54751 -1.25994
1 -3.87467 -2.31295 -1.46428
1 -4.12612 -3.24676 -1.16816
1 -4.54621 -3.06393 -2.04049
1 2.78652 -2.2702 -0.217995
1 2.28357 -1.90516 0.424657
1 2.25384 -0.927105 0.232836
1 1.5805 -0.783319 -0.474326
1 1.36304 -1.66824 -0.120725
1 1.87722 -2.23309 -0.672958
1 2.58359 -2.82452 -1.08006
1 3.36074 -3.34406 -0.97171
1 3.26149 -3.30245 -1.93552
1 3.55067 -3.8707 -2.64419
1 10.3769 4.06862 -4.71948
1 9.8796 3.5275 -5.30159
1 9.68151 3.87172 -6.24203
1 8.92205 4.22228 -5.88538
1 9.43961 4.98508 -6.26535
1 8.95031 5.48304 -5.42995
1 8.02864 5.17577 -5.18209
1 8.08471 5.87349 -5.77942
1 8.61624 6.23945 -6.54769
1 9.44078 6.15684 -7.12163
1 0.467943 -7.42217 -3.74914
1 0.538581 -7.52694 -4.69961
1 -0.323614 -7.98518 -4.70758
1 0.159899 -8.38632 -3.99228
1 0.68916 -9.01738 -3.53588
1 1.39285 -9.37256 -2.88356
1 1.96007 -9.98901 -3.33671
1 2.3848 -9.26205 -2.83514
1 2.55336 -8.52585 -2.32554
1 1.66105 -8.32148 -2.51403
1 -1.09432 2.74592 5.89516
1 -1.83018 2.86795 6.54837
1 -2.65479 2.42879 6.5339
1 -2.86943 1.52533 6.80473
1 -2.12995 1.25371 6.30191
1 -1.44208 0.914239 6.94449
1 -1.85285 0.126734 7.26654
1 -2.1984 -0.282398 6.48868
1 -1.6733 -0.820184 7.1255
1 -1.10095 -0.918417 7.86637
1 0.499127 -10.681 9.22939
1 -0.368308 -10.4307 9.07703
1 -1.14497 10.5632 9.38402
1 -1.66412 -10.3543 8.69034
1 -1.8521 -9.82716 9.41368
1 -2.8115 -9.97423 9.50471
1 -2.67877 -9.08333 9.5273
1 -2.94652 -8.66569 8.72181
1 -3.26311 -8.02993 9.38781
1 -3.53411 -7.8785 10.3948
1 -1.72187 8.61963 5.65741
1 -1.35875 9.35965 5.20107
1 -0.555412 9.54042 4.6526
1 -0.432255 9.79691 5.57423
1 -0.325896 10.5493 6.14567
1 -0.465817 -9.82979 6.39674
1 -0.270461 -10.0305 7.36527
1 -0.197281 -9.57573 8.19846
1 -0.767359 -8.78525 7.9142
1 -0.746997 -9.19332 7.12346
1 5.37877 -0.616763 9.02473
1 5.3379 -1.27541 8.33728
1 6.28326 -1.14049 8.42589
1 6.37496 -0.243988 8.0792
1 5.51016 -0.505746 7.58934
1 5.21436 0.118696 6.99746
1 5.70627 0.918423 7.05306
1 5.88222 1.61344 7.72471
1 6.7929 1.37177 7.53259
1 6.89175 1.16747 8.44638
1 -7.84225 -2.86186 3.02775
1 -7.4232 -2.48325 2.2501
1 -8.28764 -2.28513 2.08435
1 -8.75311 -3.05906 2.44747
1 -8.57077 -3.92178 2.82838
1 -9.02857 -4.79071 2.5724
1 -8.06094 -4.78636 2.53247
1 -8.34526 -5.38845 1.87724
1 -7.89784 -6.18719 1.73002
1 -7.57362 -5.92233 2.53671
1 4.5998 5.87665 6.5565
1 4.07156 6.44886 7.10991
1 3.99444 7.05152 7.80222
1 3.33298 6.46509 8.22227
1 2.59815 6.77263 7.65893
1 3.0522 7.52362 8.06527
1 2.56355 8.19657 7.57375
1 2.4703 9.06588 7.93023
1 2.90093 8.67434 8.67411
1 2.59576 8.12434 9.43451
1 -1.51481 1.11411 10.6033
1 -2.16452 1.03483 9.94099
1 -2.11679 1.98034 9.80201
1 -1.51629 2.04952 9.06879
1 -1.47032 2.92601 9.46543
1 -2.27458 3.09919 9.99517
1 -2.20675 3.57006 9.24103
1 -2.61614 2.71242 8.93974
1 -3.13097 2.33864 9.63094
1 -3.3483 3.1067 10.0025
1 5.69564 -1.60944 -2.53969
1 5.34338 -0.766839 -2.82532
1 6.035 -0.705291 -3.44804
1 5.31301 -1.28181 -3.69502
1 5.11064 -2.0914 -4.20568
1 4.50247 -2.53311 -4.79193
1 4.52893 -2.7329 -5.74183
1 5.37127 -3.10713 -6.00788
1 5.48316 -3.00806 -5.06616
1 5.52824 -2.11178 -5.3439
1 -5.7292 8.74521 -9.32003
1 -5.47623 9.00711 -8.45071
1 -4.75489 8.65004 -8.97417
1 -5.01418 8.23078 -9.90081
1 -4.34303 8.85333 -10.1757
1 -3.81515 8.31029 -9.61359
1 -4.18619 7.5623 -9.20542
1 -4.98528 7.08461 -9.39798
1 -5.87743 7.34284 -9.64231
1 -6.63256 6.91988 -10.0482
1 8.23045 -7.42591 -2.40047
1 8.30063 -6.45072 -2.28684
1 8.50231 -6.57544 -1.36746
1 8.89544 -5.70414 -1.609
1 9.58897 -6.22669 -2.14363
1 9.34116 -6.99691 -2.77177
1 8.91022 -6.17332 -3.06886
1 9.11855 -6.12632 -4.1331
1 9.10083 -5.1397 -3.90939
1 8.19578 -5.22017 -4.3951
1 7.33996 10.0877 0.654839
1 7.22317 -10.3984 0.922761
1 6.46724 -10.5822 0.346399
1 6.49214 -9.56014 0.398351
1 6.85608 -9.93059 -0.373946
1 6.74222 10.5445 -0.626282
1 6.74586 10.4653 -1.60819
1 6.83204 -10.1268 -2.21114
1 7.57766 -10.0257 -2.88624
1 8.12995 -10.368 -3.62888
1 7.55828 8.49167 -1.25426
1 8.32215 9.00583 -1.01024
1 8.67005 8.12761 -0.72529
1 8.61931 7.99231 0.194904
1 9.35509 7.59543 0.666858
1 8.90604 6.96727 0.178641
1 8.20748 7.0584 0.82697
1 8.38673 6.12012 0.686745
1 9.30679 5.88806 0.796338
1 9.91638 5.90181 1.52536
1 6.59212 -8.29254 2.57835
1 7.24294 -7.82302 1.95619
1 6.78317 -8.06431 1.04796
1 7.2857 -8.5013 0.439237
1 8.18005 -8.15288 0.498987
1 8.21063 -7.83027 1.41835
1 8.52928 -7.15386 0.685989
1 7.80404 -6.55141 0.594158
1 8.29342 -6.51667 -0.291844
1 7.48118 -6.37798 -0.829765
1 2.50967 -5.34795 5.74792
1 1.78404 -5.3656 5.20099
1 2.50536 -6.05755 4.90217
1 2.07941 -5.88336 4.03382
1 1.53445 -6.35112 4.6559
1 0.588943 -6.48534 4.60859
1 0.452293 -6.32815 3.71462
1 -0.222133 -6.97202 3.68372
1 -1.05657 -7.03689 3.14236
1 -0.434777 -7.61675 2.71222
1 7.76187 3.9105 8.08952
1 8.4715 4.10455 7.50502
1 8.87408 3.92304 8.39868
1 9.10229 3.96084 9.35324
1 9.01269 3.15208 10.0185
1 9.09338 2.42068 10.5862
1 8.40756 3.17023 -10.4913
1 7.75046 3.14497 -9.71768
1 7.36102 3.89381 -10.1346
1 6.67753 3.32624 -10.404
1 5.51612 10.4991 4.0075
1 5.74965 -9.99636 4.14258
1 6.1484 -10.2283 4.95684
1 6.11353 10.1726 4.93471
1 6.64338 10.3992 4.15642
1 7.38022 9.94051 3.84663
1 8.10505 9.40142 3.48298
1 9.04965 9.48373 3.38926
1 8.84659 8.88165 2.65901
1 8.88716 8.37197 1.88231
1 7.46305 8.51196 8.40029
1 8.10258 7.897 8.93864
1 8.22181 7.10094 9.41724
1 7.56725 6.64712 9.98572
1 7.41457 5.74113 10.2434
1 8.19786 5.62684 9.68997
1 9.11995 5.3372 9.46631
1 9.18716 5.5824 8.54482
1 9.59234 4.76133 8.32406
1 9.96374 4.55671 9.21716
1 -2.51785 7.26221 -6.80684
1 -2.8945 6.95069 -6.00818
1 -3.67371 6.97193 -5.4108
1 -3.08936 6.32543 -5.25051
1 -2.44604 5.69985 -4.92296
1 -2.81832 6.36556 -4.29022
1 -2.95107 7.34268 -4.0547
1 -3.42761 7.96233 -3.494
1 -3.88008 7.73764 -4.34613
1 -3.89749 6.81389 -4.18099
1 6.44746 -10.2393 1.79394
1 5.84729 -9.90014 1.19301
1 5.05331 -10.0243 0.575913
1 4.4658 -9.24751 0.675984
1 5.20946 -8.95649 1.25587
1 5.79193 -8.25756 1.43531
1 5.87938 -7.37159 1.76209
1 6.4909 -7.0529 1.07696
1 6.77741 -6.27994 0.53206
1 7.00443 -7.18125 0.296886
1 -10.5707 -2.18719 9.80176
1 -9.77118 -2.01453 10.3165
1 -9.01604 -2.55375 10.0487
1 -8.92591 -2.93663 9.24498
1 -8.49426 -2.07636 9.20069
1 -8.06291 -2.37782 8.36503
1 -8.62461 -1.61713 8.11453
1 -8.0791 -0.834358 8.44685
1 -7.76872 -1.42269 9.1255
1 -7.37948 -1.72321 8.32164
1 -10.5274 -10.5391 -7.02584
1 10.245 10.6284 -7.90969
1 9.93151 -10.1399 -7.23216
1 9.44357 10.4757 -7.33585
1 10.2064 9.90229 -7.01117
1 9.78592 10.4021 -6.33856
1 9.67729 9.58626 -5.86696
1 10.4185 9.1391 -6.26413
1 10.5491 8.34354 -5.67052
1 -9.97683 8.53329 -5.22242
1 -2.99084 5.18064 5.31013
1 -3.9507 5.31943 5.21843
1 -3.46545 5.97559 4.72596
1 -2.99677 5.78333 3.84828
1 -2.46044 5.7569 4.63345
1 -1.94506 5.73961 5.41603
1 -2.41926 5.91917 6.22837
1 -1.83289 6.65764 6.1422
1 -1.78239 7.63807 6.40831
1 -1.31134 7.52187 7.26391
1 -2.88288 10.1163 -6.23292
1 -3.70079 9.94639 -5.8056
1 -4.05323 -10.6129 -5.50087
1 -4.10859 10.1163 -4.87681
1 -4.97016 9.85069 -5.24844
1 -4.80393 9.25378 -4.48684
1 -4.83011 8.37034 -5.08559
1 -4.32169 8.94112 -5.73096
1 -3.73476 8.18804 -5.58446
1 -3.23566 9.09494 -5.54511
1 -7.67648 -9.23364 -1.12252
1 -8.34875 -9.8831 -0.958505
1 -8.10516 -9.33771 -0.165273
1 -7.63866 -10.1842 -0.219657
1 -7.83069 10.6424 -0.946138
1 -8.44939 10.3966 -1.59548
1 -7.91456 9.77501 -2.03054
1 -8.46543 9.18758 -1.51425
1 -8.37189 9.51263 -0.652267
1 -8.86186 8.74939 -0.446847
1 0.62371 -9.826 10.4595
1 0.557916 -9.78183 -9.97004
1 0.364469 -8.8652 -9.8155
1 0.645498 -9.22129 -9.01148
1 0.302558 -8.33156 -8.86363
1 0.0801992 -7.53572 -9.36147
1 -0.611116 -7.59889 -10.0985
1 -1.49735 -7.25942 -9.97739
1 -0.959239 -7.12777 -9.17458
1 -0.472032 -7.53633 -8.46128
1 -5.78981 1.93147 -10.6196
1 -5.41764 2.75398 -10.3293
1 -4.82757 2.0798 -10.1059
1 -4.22223 2.81432 -9.82952
1 -4.72661 3.64363 -9.75571
1 -5.34228 3.03102 -9.29729
1 -5.9206 3.5635 -10.0259
1 -6.00081 3.97685 -9.19086
1 -5.64317 4.66237 -8.55244
1 -6.42363 5.05758 -8.95672
1 2.62167 -2.26139 -8.81146
1 2.25606 -2.31421 -7.90085
1 1.46216 -2.10814 -8.30042
1 1.13805 -2.74934 -8.95137
1 2.04287 -2.9191 -9.25769
1 2.31089 -3.72894 -9.70024
1 1.685 -4.34749 -10.0166
1 1.15694 -4.75406 -9.34295
1 0.975407 -3.95641 -8.96973
1 0.21319 -4.47384 -8.77217
1 -0.55243 9.9034 -1.67824
1 -1.25208 9.30478 -1.38552
1 -1.71011 9.76442 -2.09611
1 -2.4839 10.2148 -2.00896
1 -2.5916 -10.2602 -2.33703
1 -2.58817 10.6025 -3.19439
1 -3.46028 -10.5339 -3.50781
1 -4.22747 -10.5531 -2.93342
1 -4.00698 9.96528 -3.01769
1 -4.78339 9.62981 -3.42532
1 4.14773 -6.77769 -8.58986
1 4.87253 -6.82264 -9.18762
1 4.85501 -6.4654 -10.1195
1 4.93145 -7.4029 -10.0144
1 4.90458 -7.0046 10.5075
1 4.33952 -7.48239 9.89376
1 3.96755 -6.60411 10.116
1 4.36247 -6.56039 9.19134
1 5.20842 -6.32668 8.83605
1 5.17616 -7.28175 8.98706
1 0.739579 -6.32889 0.088835
1 1.26617 -6.60317 -0.580175
1 1.32132 -7.37099 -0.0420304
1 0.654484 -7.73745 0.579811
1 -0.151136 -8.26853 0.600543
1 -0.361528 -8.61833 -0.371481
1 -1.07337 -9.2699 -0.376738
1 -0.730563 -10.1489 -0.632274
1 -0.0514055 -9.56701 -1.00159
1 0.62241 -9.8609 -1.62612
1 1.68686 -8.04335 -4.40756
1 1.56214 -8.19016 -5.34868
1 1.62676 -8.29107 -6.27842
1 2.49717 -8.05149 -5.71799
1 2.41643 -8.93349 -5.34991
1 3.337 -8.9732 -5.0049
1 3.85423 -9.26171 -5.78148
1 3.93212 -8.33106 -5.74245
1 3.29538 -8.00379 -6.41412
1 3.4531 -7.40119 -5.70886
1 8.48312 -5.37581 -0.218953
1 9.32205 -5.10647 -0.557518
1 10.3152 -5.00125 -0.754338
1 10.0953 -5.25966 -1.6624
1 10.262 -6.14991 -1.22437
1 -10.526 -6.87463 -1.31287
1 10.1048 -7.19405 -1.73127
1 10.3195 -7.9761 -1.15133
1 -10.1715 -8.01979 -1.40391
1 -10.4412 -7.58178 -0.585513
1 -7.1654 2.60424 -0.744668
1 -6.82295 2.91035 -1.55041
1 -6.11372 3.22431 -1.02872
1 -5.86258 4.07736 -1.4748
1 -5.1209 4.35543 -0.946724
1 -4.78011 3.61337 -0.52546
1 -3.94376 3.54491 -0.922662
1 -3.06006 3.08397 -1.03446
1 -2.47987 2.35653 -0.734677
1 -3.24884 1.83785 -0.789124
1 -5.76592 -8.9063 3.08031
1 -5.39195 -9.22103 3.90399
1 -6.17961 -9.74039 4.30767
1 -6.73467 -9.86915 3.57425
1 -7.07403 -10.2503 4.32659
1 -6.32897 10.6106 3.80469
1 -5.41455 10.2526 3.74699
1 -4.82764 -10.4737 3.59947
1 -4.11061 -9.92637 3.24581
1 -3.77549 -10.5292 3.90774
1 5.81616 -9.82184 -2.42121
1 5.6307 10.6518 -2.38191
1 5.91589 -10.5055 -1.51336
1 5.51399 -10.2382 -0.631275
1 5.15691 10.4945 -0.00152688
1 5.54073 9.92897 0.677251
1 4.97318 9.38481 0.198465
1 5.13795 8.81302 1.05725
1 5.52459 8.10972 0.558826
1 6.42981 8.45609 0.710822
1 -8.47982 7.06566 10.6603
1 -7.70157 6.6828 -10.3398
1 -7.99828 5.92166 10.5857
1 -8.09071 5.06649 -10.4366
1 -9.04674 5.34984 -10.2727
1 -9.14243 5.92495 10.364
1 -10.1143 6.1938 10.4429
1 -10.6339 6.92001 10.1395
1 9.85661 7.27621 9.99674
1 9.48926 6.40288 9.95567
1 -5.6678 1.54591 -7.90492
1 -5.12467 1.19603 -8.65255
1 -5.85682 0.995184 -9.33758
1 -6.0301 0.8463 -10.317
1 -5.48958 0.468541 10.4444
1 -5.17606 1.23325 9.80847
1 -4.67829 0.666904 9.28744
1 -4.6048 -0.303292 9.29164
1 -4.56388 0.108358 10.1648
1 -3.88472 -0.282677 -10.7082
1 -1.083 -10.4622 1.68435
1 -0.512322 -10.6524 0.969788
1 -0.501299 9.97919 1.41167
1 -0.289753 9.54126 0.590062
1 0.161024 9.61479 -0.248238
1 -0.351671 10.4919 -0.108452
1 0.419652 -10.6034 0.447522
1 0.815942 10.0484 0.949456
1 0.350248 10.5799 1.61774
1 0.871165 -10.1101 1.45277
1 10.3562 9.17412 -1.02736
1 9.3933 9.20999 -0.995169
1 9.61192 9.44078 -0.0907539
1 9.24259 8.8448 0.627909
1 9.17025 9.366 1.42402
1 9.00316 9.89278 2.26931
1 8.2231 10.2941 2.75465
1 7.98334 -10.5293 2.01114
1 7.28181 -10.5703 2.66817
1 7.18213 -9.88222 3.46901
1 -2.37268 -1.94446 -7.33231
1 -2.36668 -2.41818 -8.1818
1 -2.62677 -1.46372 -8.16076
1 -2.74916 -0.889676 -7.30402
1 -3.69642 -0.698695 -6.91464
1 -4.19107 -0.719202 -7.75629
1 -3.88571 -1.24525 -8.50627
1 -3.73804 -1.56986 -9.39023
1 -3.21232 -0.765108 -9.42192
1 -3.11382 0.0871397 -9.87858
1 1.38032 -9.59929 -0.622067
1 1.68197 -10.2747 -1.19895
1 0.90359 -10.5194 -0.734637
1 0.149149 10.3664 -1.01118
1 0.298798 9.47003 -1.28888
1 0.37595 10.0682 -2.12504
1 1.27727 9.5821 -2.14591
1 1.27462 10.164 -1.4022
1 2.12809 10.1457 -0.850734
1 2.19378 9.58563 -0.132736
1 -1.5841 5.23622 -10.1329
1 -1.0944 5.46381 10.4096
1 -1.04381 4.60967 10.6317
1 -0.136983 4.44923 -10.4266
1 -0.463549 5.34601 -10.1189
1 0.457225 5.0967 -9.94628
1 1.34007 4.77574 -9.89509
1 1.53604 4.22276 -10.6478
1 1.12486 3.6532 -10.0289
1 1.5886 3.15485 -9.32261
1 -2.89455 -3.95546 1.04485
1 -2.91486 -3.01194 0.743823
1 -3.34242 -2.73917 1.54508
1 -2.62305 -3.27192 1.83107
1 -2.11168 -2.48665 1.67774
1 -2.01829 -2.39001 0.775773
1 -1.14423 -2.71579 0.603118
1 -1.81779 -3.47527 0.61248
1 -1.41296 -3.24562 -0.188502
1 -1.1124 -4.21993 -0.193454
1 -2.07096 9.54653 -7.46495
1 -2.45022 10.0816 -8.14618
1 -3.15333 10.0792 -8.79988
1 -2.36718 9.56247 -9.06369
1 -2.41868 10.0922 -9.81529
1 -2.03395 9.77543 -10.5873
1 -2.49854 9.03229 10.5504
1 -2.4832 8.10316 -10.5467
1 -3.21941 7.63738 -10.3098
1 -4.02943 8.02047 -10.5798
1 -1.41047 -10.4722 3.83235
1 -1.72385 10.2947 4.5248
1 -0.810223 10.5868 4.88184
1 0.167763 10.7065 4.70494
1 0.0938729 -10.0602 5.38625
1 0.700255 -9.67698 4.76661
1 0.0464815 -8.96319 4.54499
1 -0.857144 -8.96652 4.22257
1 -1.15608 -9.68238 4.72385
1 -1.57572 -8.93916 5.04427
1 6.0068 -4.67286 -1.51317
1 6.72908 -5.2614 -1.68727
1 7.14588 -5.08428 -0.888074
1 7.0607 -5.29722 0.0350005
1 6.22554 -5.67798 -0.226398
1 5.50125 -5.90813 0.371139
1 5.45375 -5.43847 1.24365
1 4.89435 -4.73674 0.890901
1 4.67103 -4.37458 1.73604
1 4.49988 -5.28638 1.82629
1 -10.6283 7.00094 3.22904
1 9.99265 6.35074 3.23088
1 9.88785 6.56239 2.30509
1 10.6616 6.02231 2.35388
1 9.89006 5.43207 2.47041
1 10.5885 4.87337 2.17859
1 10.6218 4.37908 1.35222
1 -9.93333 4.27099 1.72183
1 -9.9694 4.4747 2.66789
1 -9.35512 5.10805 2.98388
1 -6.3264 3.6681 7.92433
1 -5.7349 3.46519 7.22602
1 -5.09625 3.87024 7.86972
1 -4.19273 4.11089 7.48697
1 -3.37105 4.65819 7.63639
1 -2.79611 5.10582 6.99596
1 -3.27819 4.83498 6.27493
1 -4.13608 4.49633 6.49792
1 -5.06154 4.45162 6.67515
1 -5.07391 5.05558 7.43966
1 -5.19306 -3.30873 0.336505
1 -6.0195 -3.67601 0.667366
1 -6.53393 -2.92999 0.863205
1 -7.3596 -3.4007 1.00658
1 -7.19795 -4.11812 0.31781
1 -6.70999 -4.54498 -0.486754
1 -5.74863 -4.51554 -0.207777
1 -5.85827 -5.1766 -0.914577
1 -5.80631 -4.90444 -1.82472
1 -5.34123 -4.16052 -1.42681
1 -0.153628 -8.64192 3.54381
1 -0.882363 -8.07488 3.80858
1 -1.60472 -8.551 3.53251
1 -1.9512 -9.21398 4.1465
1 -2.53418 -8.6406 4.65016
1 -3.06428 -8.79711 3.90891
1 -3.6087 -8.19627 4.48726
1 -3.95928 -8.81086 5.2027
1 -4.67421 -9.43603 4.97435
1 -4.07737 -9.14593 4.23627
1 9.53963 -4.16993 9.17271
1 9.91427 -3.83991 8.4246
1 9.55726 -4.33217 7.69085
1 9.30202 -5.10911 7.23275
1 10.1502 -5.43066 7.06211
1 10.4204 -4.53954 7.18281
1 -10.1736 -5.15953 7.24948
1 -9.7445 -4.31919 7.54169
1 -9.32014 -5.08014 7.94576
1 -10.1 -5.07819 8.55618
1 8.86115 -9.70477 -7.12396
1 9.25231 -10.0565 -6.34973
1 9.28946 -10.2561 -5.40122
1 10.0273 -9.64731 -5.58121
1 10.2053 -9.44341 -6.49
1 -10.2542 -9.47106 -6.58332
1 -9.77069 -9.83863 -7.37378
1 -10.3206 -10.1262 -8.2294
1 -9.93693 -9.42949 -8.80333
1 -9.09604 -9.10292 -9.03675
1 -6.03634 -7.74817 9.42049
1 -5.86167 -8.63929 9.07293
1 -6.46336 -8.83855 9.76162
1 -6.17261 -9.12695 10.6254
1 -5.74779 -9.86449 10.3824
1 -4.95315 -9.31406 10.4368
1 -5.21409 -8.61854 9.86746
1 -4.91553 -9.24278 9.19687
1 -5.78443 -9.6282 9.41634
1 -5.03886 -10.2567 9.60913
1 3.91317 -6.16181 8.08623
1 4.1338 -6.26648 7.08596
1 4.04073 -6.87617 6.34403
1 3.33047 -6.55506 5.79169
1 3.57954 -7.53529 5.46593
1 4.48869 -7.86534 5.8669
1 4.17203 -8.28416 6.6169
1 3.76523 -8.36307 7.54313
1 3.3795 -8.12775 8.36386
1 4.13531 -7.68097 8.74364
1 -5.37188 -7.14546 -6.57785
1 -5.83439 -6.60266 -7.19281
1 -6.74163 -6.40487 -7.01178
1 -6.78828 -7.06413 -7.73499
1 -7.56613 -6.90263 -8.19228
1 -7.82119 -7.43046 -7.45917
1 -7.41232 -7.14115 -6.56259
1 -6.76467 -6.93432 -5.93079
1 -7.12153 -7.54862 -5.2631
1 -7.86762 -7.05358 -5.63942
1 6.44788 -7.84027 -8.53477
1 6.61441 -8.76496 -8.8007
1 6.50833 -8.56063 -9.67411
1 6.25715 -8.97101 -10.4534
1 5.66506 -9.49683 -9.91708
1 5.06248 -9.51826 -9.18888
1 4.47197 -9.07643 -9.75525
1 4.15794 -8.96914 -8.91472
1 4.21957 -8.11139 -9.31223
1 3.73191 -8.37412 -10.1015
1 -5.48113 -1.18544 9.67575
1 -5.65089 -0.315525 9.9081
1 -6.47896 -0.7698 9.95383
1 -7.04852 -1.58612 10.0226
1 -6.18827 -1.52456 10.4793
1 -5.69923 -1.58624 -10.0892
1 -5.86243 -1.43596 -9.15225
1 -5.80803 -0.72685 -8.5564
1 -6.30417 -0.0484469 -8.06689
1 -6.15161 0.7848 -8.3946
1 5.80881 0.731205 -6.7782
1 6.57481 0.320937 -6.17244
1 6.79753 0.621579 -7.03996
1 7.6929 0.564895 -7.21902
1 8.37005 1.29034 -7.03499
1 8.05353 2.10693 -6.81125
1 7.38335 1.52578 -7.31133
1 7.65483 1.03517 -8.0869
1 7.18648 1.84641 -8.44416
1 7.50994 2.64278 -8.80924
1 -8.8786 -4.86683 -0.333694
1 -8.45372 -4.30578 -0.981664
1 -7.95152 -3.60599 -0.445129
1 -7.85421 -2.59189 -0.317623
1 -7.52248 -1.72097 -0.686346
1 -6.7002 -1.49437 -0.313219
1 -6.58579 -1.64398 0.631355
1 -7.13722 -0.895977 0.874166
1 -7.6281 -1.06531 1.60734
1 -7.43833 -1.99286 1.31597
1 -1.55723 10.0355 8.62713
1 -1.58501 10.2417 7.68224
1 -2.34118 10.5168 7.17261
1 -2.47419 10.1978 6.31554
1 -2.25394 10.1573 5.42195
1 -2.50915 9.2191 5.60908
1 -3.10719 9.26596 4.88823
1 -3.46681 8.89673 5.64566
1 -3.60673 8.99877 6.58819
1 -2.70227 9.28235 6.9826
1 0.453879 -2.70705 4.29593
1 -0.505006 -2.60753 4.22101
1 -0.630169 -2.1829 3.29643
1 -0.87312 -1.29983 3.24023
1 -1.42306 -1.37115 2.4385
1 -2.03417 -2.04827 2.58636
1 -1.64756 -2.52663 3.35046
1 -1.45732 -3.24331 2.7817
1 -2.4224 -3.30976 2.90288
1 -2.89488 -2.59087 2.53501
1 1.48902 6.20908 -3.61351
1 1.10924 5.91872 -4.44989
1 0.650781 5.40288 -5.04291
1 0.403485 5.86441 -5.8522
1 -0.194313 5.72084 -6.66536
1 -0.117453 6.51605 -7.22166
1 0.81928 6.59812 -7.53388
1 0.350922 6.53896 -8.30065
1 0.958666 6.3227 -9.02224
1 0.997331 7.24288 -9.13328
1 -6.09829 0.336759 -1.07218
1 -5.19674 0.131149 -1.09241
1 -4.86064 0.951534 -1.5206
1 -3.93799 0.889408 -1.69732
1 -3.76522 -0.0347231 -2.04806
1 -4.09953 -0.613071 -2.75123
1 -4.28971 -0.451912 -3.68672
1 -4.29664 0.311097 -3.16088
1 -4.73748 1.23693 -3.31736
1 -5.1465 2.04658 -3.53791
1 -8.19418 5.57156 4.72628
1 -8.66289 4.94622 5.18134
1 -8.37774 5.47129 6.01463
1 -8.65119 6.27902 5.69751
1 -8.74141 6.4372 4.70245
1 -9.78376 6.52108 4.49068
1 -10.2489 7.01656 5.10939
1 -10.1494 7.84554 5.70077
1 -10.5814 8.62752 6.04463
1 10.622 9.29402 5.44187
1 3.73037 -3.4677 8.00271
1 2.81167 -3.25857 7.64518
1 2.38722 -4.0827 7.98742
1 1.70189 -3.87073 8.645
1 1.42602 -3.23509 8.01384
1 0.950821 -3.06973 7.17495
1 1.48816 -3.03512 6.42313
1 1.80134 -2.13413 6.33393
1 1.55903 -1.20657 6.15585
1 0.751664 -1.05297 6.60528
1 5.85154 -3.94336 2.23429
1 5.89141 -4.32951 1.38923
1 6.45128 -4.47649 0.608395
1 7.25795 -4.79318 0.887433
1 7.29466 -3.79916 0.967722
1 6.82875 -3.89654 1.84079
1 7.55064 -4.47698 1.80337
1 7.85146 -3.80241 2.41676
1 7.23464 -4.10433 3.0502
1 7.24603 -3.20702 3.49185
1 3.14038 -6.56623 -3.53767
1 2.51375 -5.86601 -3.95724
1 1.64082 -6.24438 -3.63422
1 1.92954 -7.06115 -3.98046
1 1.79445 -7.21248 -5.00158
1 2.69855 -6.80851 -4.72544
1 2.14473 -6.15394 -5.0197
1 1.70858 -6.06054 -5.9167
1 1.49054 -6.88323 -6.40656
1 2.45475 -6.99484 -6.04039
1 9.8607 7.02469 4.25651
1 8.90251 6.80797 4.1831
1 8.63129 6.95129 5.14991
1 9.61924 6.91754 5.2934
1 10.2449 6.53497 5.9195
1 9.69576 7.12505 6.41984
1 9.13053 7.28587 7.18954
1 8.77419 7.23662 8.04279
1 8.76648 6.39352 7.66935
1 8.64186 5.49061 7.60244
1 -9.00511 -1.37735 5.54911
1 -8.56576 -2.20506 5.22636
1 -8.35001 -2.41955 4.26702
1 -9.07921 -2.72465 3.6166
1 -9.6595 -3.3951 4.00581
1 -10.3458 -3.95984 3.70548
1 -10.5797 -3.0185 4.04817
1 -10.6122 -3.22195 3.08615
1 -9.67949 -3.00644 2.89437
1 -10.1592 -2.156 3.07938
1 -5.51368 1.75012 8.89074
1 -6.0847 2.28136 9.46793
1 -6.95807 2.32292 9.07989
1 -7.83467 1.88806 9.32288
1 -8.5301 1.40291 8.95288
1 -9.10332 0.838548 9.52776
1 -8.56133 1.49224 10.1204
1 -8.11319 2.21326 10.663
1 -7.41316 2.566 10.0587
1 -6.9519 2.18329 -10.6193
1 -6.70661 3.43387 3.58804
1 -6.80913 4.37253 3.67877
1 -7.48574 5.12308 3.473
1 -7.56087 4.93454 2.53285
1 -7.92179 4.73834 1.67668
1 -8.76822 5.23206 1.87517
1 -8.94954 4.5337 1.19092
1 -8.30816 4.63588 0.513107
1 -8.72202 5.4507 0.103749
1 -8.42282 5.52603 -0.815497
1 -7.0143 10.3713 6.05615
1 -7.16693 10.0362 5.11673
1 -7.89974 10.6659 4.88489
1 -7.47344 -10.0575 5.48839
1 -8.30559 -9.88702 6.03572
1 -7.52695 -9.43397 6.33571
1 -7.47094 -8.75777 5.61845
1 -7.2988 -7.98709 5.11942
1 -8.17653 -8.52472 4.88472
1 -9.04584 -8.68016 4.4069
1 8.94826 -7.99708 5.25891
1 9.78401 -7.5714 5.5798
1 9.52985 -6.61686 5.47753
1 10.2229 -6.04724 5.34293
1 -10.6152 -5.60131 4.78317
1 -10.3793 -5.51995 3.88752
1 -9.50116 -5.09379 3.84761
1 -8.83843 -5.66772 4.31854
1 -9.24967 -6.36403 3.80219
1 -9.1347 -5.73479 3.07964
1 -9.47661 -8.72958 -5.90367
1 -9.55025 -7.83266 -6.24395
1 -9.98872 -7.12048 -6.6712
1 -10.4827 -6.27489 -6.74452
1 -9.57138 -6.0701 -7.11522
1 -9.35351 -6.84196 -7.59305
1 -8.75794 -7.07357 -6.91167
1 -8.89078 -6.57373 -6.10912
1 -9.72589 -6.74764 -5.71847
1 -9.73144 -5.78161 -5.98763
1 -2.85496 -7.17443 6.95066
1 -2.98001 -6.44007 6.45412
1 -2.23183 -6.58145 5.80745
1 -2.47651 -7.46402 6.05718
1 -2.05992 -8.20016 6.53852
1 -1.28621 -8.79939 6.48658
1 -0.589549 -8.228 6.75877
1 -0.823584 -7.30827 6.91056
1 -0.938977 -7.2482 5.97326
1 -1.57885 -7.86878 5.64412
1 -5.85138 -8.19027 -0.936405
1 -5.89481 -7.9578 -1.90376
1 -5.60445 -8.89878 -1.88629
1 -5.24986 -8.80552 -2.78974
1 -4.6646 -9.44329 -2.46721
1 -4.66055 -9.64034 -1.48402
1 -4.68865 -10.5729 -1.62224
1 -4.85294 10.1327 -2.2395
1 -5.68842 10.5449 -2.14186
1 -5.76375 10.6283 -1.16911
1 3.80968 -1.48454 8.91036
1 4.45423 -0.957548 9.35379
1 4.52825 -0.95254 10.352
1 4.82548 -0.859236 -10.1554
1 5.73478 -1.05535 -9.91879
1 5.36585 -0.765763 -9.07883
1 5.23868 -1.21619 -8.25679
1 5.34572 -2.15906 -8.40844
1 6.26075 -2.04939 -8.54871
1 6.61341 -2.66222 -7.91546
1 3.52892 -1.55086 -1.99058
1 3.13868 -2.30774 -2.38536
1 2.38378 -2.33115 -3.01007
1 3.07353 -1.76031 -3.33153
1 3.21553 -0.885053 -3.7463
1 3.26385 -0.0988954 -3.19231
1 3.52694 0.850667 -3.06967
1 3.867 0.315521 -2.36043
1 4.13398 0.208758 -1.44777
1 4.37528 -0.647602 -1.83555
1 -4.13272 -5.25096 -10.0321
1 -5.08346 -5.27987 -10.0197
1 -5.4888 -6.06474 -9.63851
1 -5.26242 -6.53409 -8.83047
1 -6.03918 -6.47335 -8.35142
1 -5.6143 -7.27671 -8.02418
1 -4.68266 -7.11246 -8.24195
1 -4.54467 -6.944 -7.33162
1 -4.8933 -7.80581 -7.20931
1 -5.7256 -8.23486 -7.37916
1 8.12775 -1.67825 -0.630296
1 8.55782 -2.28559 0.0984449
1 9.51479 -2.29083 -0.0445419
1 9.28623 -1.75253 0.795946
1 9.08009 -1.40793 -0.0827795
1 9.16546 -0.528954 -0.456871
1 10.0667 -0.465514 -0.558984
1 10.2797 -1.32582 -0.208174
1 -10.3276 -1.7443 -0.400633
1 -9.88809 -1.86292 0.438763
1 -7.83739 -10.4129 -4.27485
1 -8.26346 -9.6534 -4.5592
1 -7.64966 -8.8715 -4.76481
1 -7.44738 -9.04908 -5.62683
1 -7.01992 -8.4109 -6.17043
1 -7.92598 -8.13922 -6.22987
1 -8.27629 -8.12155 -5.35706
1 -8.49799 -8.33409 -4.38508
1 -9.21535 -8.25165 -5.02996
1 -9.76309 -7.48469 -5.00662
1 4.16173 7.10756 9.00866
1 3.38027 7.60178 8.9958
1 3.72398 8.35574 9.48165
1 4.13651 8.04288 8.58025
1 3.87524 8.8771 8.28693
1 3.27803 9.223 7.56384
1 3.28351 10.1419 7.68915
1 2.65175 -10.6303 7.82844
1 2.16484 10.1226 7.40293
1 2.29429 9.34977 6.87395
1 -2.64663 9.7651 2.17096
1 -2.07995 10.5109 2.49271
1 -1.53982 10.0214 1.86024
1 -1.54375 10.3194 0.908393
1 -1.41279 -10.453 0.234838
1 -1.85292 -10.0347 0.969288
1 -2.07541 -9.63134 0.124519
1 -2.88448 -9.99543 -0.250754
1 -3.05285 -10.0406 0.645188
1 -2.4205 10.6697 0.307493
1 -1.0961 5.12444 -6.00023
1 -1.66097 4.55137 -5.37326
1 -0.773796 4.22755 -5.47914
1 -1.0245 3.30071 -5.44411
1 -0.684506 2.57791 -4.95128
1 0.226318 2.48546 -4.81966
1 -0.202693 1.81023 -4.23994
1 -1.07227 1.39884 -4.17342
1 -1.16719 0.857163 -3.35536
1 -0.596888 1.51068 -3.00204
1 3.10887 8.47898 0.403861
1 3.7668 9.05924 -0.0990573
1 3.41876 9.7972 0.370977
1 4.129 10.1797 -0.163642
1 3.16448 10.6122 -0.096912
1 3.20177 9.94576 -0.723861
1 4.03752 9.7183 -1.14476
1 3.51703 9.74668 -1.90937
1 3.6887 8.9388 -2.37631
1 3.7619 8.94179 -3.31028
1 9.41825 -3.89849 -9.98231
1 9.03012 -3.04023 -10.1701
1 9.79522 -2.90321 10.7026
1 9.49156 -2.30012 10.0252
1 8.91356 -1.68261 10.4747
1 9.4444 -1.90501 -10.2065
1 8.41736 -1.69165 -10.1198
1 7.96234 -1.52438 -9.32089
1 7.81656 -0.851674 -8.63697
1 8.47372 -1.43837 -8.36657
1 2.16428 8.63735 4.69211
1 1.31511 8.22026 4.90163
1 0.370549 8.52732 4.93798
1 0.773475 9.30459 5.4263
1 0.995899 8.4399 5.80713
1 0.589986 8.14914 6.62853
1 1.20052 7.66501 7.22213
1 1.55641 6.89776 7.69061
1 2.04787 7.19852 8.44013
1 1.81829 8.10485 8.35062
1 -6.41072 -7.01786 -3.91675
1 -6.71926 -7.78322 -3.36956
1 -7.31353 -8.03146 -4.13386
1 -6.42858 -7.92229 -4.5222
1 -6.50807 -8.38097 -5.34639
1 -5.59616 -8.31355 -5.15988
1 -5.29535 -7.49028 -5.46456
1 -4.63053 -8.04117 -5.84946
1 -4.19022 -7.3252 -6.2895
1 -3.84875 -8.1453 -6.71925
1 6.31381 -2.87945 2.82263
1 5.98628 -3.01905 3.70236
1 5.90216 -3.59758 4.48178
1 6.28784 -3.49575 5.33554
1 6.91097 -2.75791 5.3525
1 7.21115 -1.82992 5.19531
1 7.04933 -2.3788 4.41678
1 7.66678 -3.14186 4.41455
1 7.90362 -4.0327 4.31575
1 8.76548 -4.21092 4.61156
1 -6.759 -4.22061 -6.38629
1 -6.21553 -3.53537 -6.68721
1 -5.69159 -2.74023 -6.66861
1 -6.58317 -2.49263 -6.35017
1 -7.18151 -3.25334 -6.20357
1 -8.1397 -3.43169 -6.42639
1 -8.36857 -2.57683 -6.05815
1 -7.47266 -2.66983 -5.57986