8000
Atoms. Timestep: 10000000
1 7.78054 9.66449 2.4238
1 8.00621 10.5535 2.59103
1 7.79619 -10.2522 1.74083
1 8.66811 -9.72613 1.90084
1 9.42288 -9.38667 1.4252
1 9.02987 -9.55209 0.582968
1 8.87509 -9.98187 -0.280276
1 8.64502 -9.41264 -0.988009
1 8.22911 -8.97506 -1.82459
1 7.37661 -9.09394 -1.34121
1 1.44682 -5.46021 -9.68798
1 1.91067 -5.30719 -8.81933
1 2.19955 -4.38718 -8.48355
1 1.76764 -4.28177 -9.29689
1 0.818779 -4.15232 -9.44221
1 0.377167 -3.43776 -8.859
1 1.0109 -3.86533 -8.30064
1 0.559729 -4.69979 -7.93799
1 0.861807 -5.46533 -8.43409
1 1.53899 -5.54817 -7.70687
1 -0.124455 7.44071 -5.9304
1 -0.508995 8.1966 -6.31119
1 0.356537 8.0179 -6.92115
1 0.0955289 8.14646 -7.87571
1 0.374176 7.60873 -8.57779
1 0.188608 6.755 -8.96698
1 -0.0194791 5.81974 -9.02637
1 -0.174326 5.50326 -8.13194
1 -0.0596 6.37616 -7.71069
1 0.463252 7.15906 -7.47041
1 10.0577 -4.14421 -5.29877
1 -10.3572 -4.1095 -5.81376
1 10.454 -4.19029 -6.70336
1 10.4863 -4.60517 -7.58317
1 -10.1004 -4.09605 -8.05338
1 -10.0299 -3.36807 -7.34179
1 -10.3742 -2.7537 -6.70083
1 -10.0215 -2.72906 -5.79884
1 -9.44803 -2.21369 -6.4113
1 -9.38317 -3.21699 -6.53582
1 5.52092 0.0823702 4.28207
1 5.13167 -0.150318 3.42965
1 4.56975 0.374157 2.80035
1 4.32061 1.10817 2.25092
1 3.54298 0.731409 2.49919
1 3.02022 1.53349 2.27094
1 2.54058 0.753398 2.61535
1 2.40254 -0.00959366 2.11175
1 2.9189 0.708345 1.6491
1 3.67128 1.20551 1.29058
1 0.318993 0.486644 1.80363
1 1.27021 0.472144 1.96955
1 1.16921 1.40368 1.94351
1 1.02472 1.54265 1.04601
1 1.90139 1.17326 1.07206
1 1.9465 1.95987 0.483655
1 1.71383 2.00078 -0.46802
1 2.32096 1.75407 -1.19015
1 2.89357 2.49801 -1.36696
1 2.44616 2.4375 -2.16812
1 -3.15006 0.274872 -5.37681
1 -3.91298 0.748778 -5.16884
1 -3.21357 0.791294 -4.54238
1 -2.76054 1.63029 -4.60648
1 -3.68797 1.64875 -4.67947
1 -3.94019 1.8488 -5.57581
1 -3.01198 2.16787 -5.56079
1 -3.644 2.68592 -4.96428
1 -3.32463 3.33211 -5.61417
1 -2.85205 4.06546 -5.2705
1 -4.29393 0.553627 -10.143
1 -5.30759 0.628231 -10.2593
1 -5.98614 0.70001 10.3375
1 -5.35248 0.926185 9.66843
1 -4.94138 0.0658972 9.98769
1 -4.06204 -0.047046 10.3555
1 -4.36019 0.846226 10.0824
1 -3.45403 0.630594 9.77114
1 -3.30495 0.92891 -10.5816
1 -2.39262 0.72656 10.4376
1 3.92065 3.69466 0.421421
1 3.24086 3.08261 0.323626
1 2.65015 3.84031 0.310439
1 2.43989 3.14447 1.02484
1 3.08817 3.75496 1.53348
1 4.09387 3.72957 1.52367
1 3.71425 2.86474 1.40077
1 4.03054 2.79047 2.26391
1 3.14935 2.94558 2.44654
1 2.46311 2.30676 2.80281
1 -7.62095 -7.06517 2.69875
1 -6.91016 -6.43712 3.12513
1 -6.77592 -6.53415 2.1473
1 -6.40675 -6.82916 1.33964
1 -5.69001 -7.49081 1.26702
1 -4.71144 -7.81124 1.22857
1 -4.88989 -6.99673 0.686422
1 -5.31962 -7.09811 -0.147774
1 -4.74121 -7.92542 -0.129103
1 -3.99849 -7.99762 0.569027
1 -3.24214 -8.48952 4.16014
1 -2.93892 -8.86497 3.34381
1 -3.86681 -8.86646 3.20243
1 -4.59644 -9.17676 3.84963
1 -5.32669 -8.86896 4.42685
1 -5.87356 -9.19694 5.07045
1 -5.17466 -8.76885 5.59623
1 -4.61437 -8.27707 5.08872
1 -3.8968 -8.31711 5.74155
1 -4.29577 -7.46977 5.96756
1 -4.44633 -6.98965 -5.37895
1 -3.69755 -6.49365 -5.76332
1 -4.13518 -5.75079 -5.36578
1 -3.84932 -6.39592 -4.72611
1 -4.5218 -6.60371 -4.1906
1 -4.96779 -7.07289 -3.47994
1 -5.80401 -6.86584 -3.10936
1 -5.99001 -5.89752 -3.23479
1 -5.87079 -5.36262 -2.4519
1 -6.68537 -5.55543 -2.05047
1 4.49748 6.62457 5.81014
1 5.21448 6.02171 5.82651
1 5.6269 6.86289 5.59801
1 6.22774 6.46717 6.33699
1 6.20673 5.54915 6.3348
1 6.12413 5.68958 5.3415
1 5.60283 4.96197 5.60047
1 5.45515 4.93173 6.5445
1 4.99987 4.47885 7.30109
1 5.44741 3.68054 7.68307
1 4.76448 6.18278 0.67798
1 4.51342 5.57291 1.44915
1 5.35004 5.96808 1.53596
1 5.15389 5.27222 2.16944
1 5.27143 4.62757 2.87832
1 4.86285 4.52193 3.70098
1 4.37582 5.22677 3.20514
1 3.68229 5.6428 3.79083
1 3.48487 5.58098 2.81786
1 2.81367 6.0583 3.36535
1 -3.34929 -6.18404 6.00815
1 -2.99787 -6.86262 6.58167
1 -2.40586 -7.63675 6.74658
1 -1.84801 -8.40883 6.86122
1 -1.28556 -8.20398 6.11119
1 -1.86221 -7.46841 5.82168
1 -1.36688 -7.24628 5.05914
1 -0.637759 -6.59518 5.00103
1 -0.783641 -5.89133 4.31563
1 0.100693 -5.85277 4.69752
1 -9.0703 -5.69005 -9.0419
1 -8.26293 -5.21985 -9.09754
1 -7.47106 -4.58781 -9.12749
1 -7.28313 -3.87535 -9.7563
1 -7.85882 -4.4806 -10.2262
1 -8.6829 -4.99808 -10.4208
1 -9.09544 -4.29177 -9.96561
1 -8.39967 -3.61625 -10.1248
1 -8.35268 -3.94633 -9.22234
1 -9.09945 -3.844 -8.62207
1 -6.11013 -10.4837 8.55969
1 -5.68401 -9.97632 7.84004
1 -6.49847 -10.072 7.24148
1 -5.74219 10.5409 6.98497
1 -5.69148 10.0876 7.81687
1 -5.83501 9.11969 7.94651
1 -6.64087 9.00073 8.35839
1 -6.64136 8.05166 8.63452
1 -5.82119 8.14462 8.17721
1 -5.06964 8.56379 8.62645
1 -0.549698 -2.96937 10.4223
1 -0.922301 -3.09164 9.61792
1 -1.31429 -2.16502 9.97282
1 -1.16009 -1.2347 9.70828
1 -1.44213 -0.330222 9.83761
1 -0.820188 -0.517756 10.5523
1 -0.127831 -1.07974 10.1306
1 -0.292984 -0.187903 9.7784
1 -0.511835 0.766346 9.54847
1 0.108125 0.294476 8.93033
1 5.26638 6.91362 6.59623
1 5.36419 5.96349 6.88458
1 4.71272 5.52925 7.3086
1 4.32078 6.2638 6.77306
1 3.65034 5.92807 6.09493
1 2.78395 5.74656 6.50317
1 3.2785 6.42137 6.95564
1 3.86925 6.1229 7.67591
1 3.28962 5.38563 7.70093
1 3.71243 5.33863 6.88714
1 -2.2366 5.13953 -4.85789
1 -1.891 5.04896 -3.97512
1 -1.25324 4.37365 -4.16822
1 -1.94501 4.0885 -4.79289
1 -1.31546 4.71343 -5.15337
1 -0.524114 5.22095 -5.3067
1 0.295072 4.82674 -5.32066
1 0.291279 5.77754 -4.97252
1 0.722356 5.19117 -4.31603
1 -0.206698 4.91969 -4.29609
1 -3.04201 3.26747 -9.65968
1 -3.29548 2.38656 -9.85503
1 -4.15745 2.29837 -9.47256
1 -4.25607 3.01442 -10.1121
1 -4.99094 2.5471 -10.5753
1 -5.08702 1.61056 10.5174
1 -5.34795 2.03387 9.71894
1 -6.13543 2.46118 10.0433
1 -6.07048 1.87567 -10.4038
1 -6.83451 1.48444 10.4366
1 9.21496 4.5368 -2.72828
1 9.28367 4.06313 -3.59302
1 9.02359 3.45831 -2.75451
1 9.30458 3.0077 -3.59814
1 9.04634 2.26308 -4.10485
1 8.41672 2.14459 -3.36994
1 8.11123 2.72139 -2.70456
1 7.46515 2.69689 -3.40538
1 7.56103 3.56998 -2.91125
1 8.29335 3.43618 -3.52198
1 6.09833 9.51632 3.39428
1 6.35073 8.65459 3.72093
1 5.39162 8.801 3.89009
1 4.96465 9.04983 3.07392
1 5.66196 8.42949 2.83202
1 6.17401 8.37445 2.06664
1 6.59887 7.87766 2.73026
1 7.25676 8.47464 3.19487
1 7.85988 7.80647 2.84412
1 8.31817 7.62989 2.05037
1 8.22314 -1.79792 2.90538
1 8.76585 -1.91999 2.15554
1 8.60662 -2.47152 1.38842
1 8.45887 -2.14654 0.488114
1 8.16709 -1.49952 -0.222343
1 8.27938 -2.36052 -0.738583
1 8.6875 -3.25785 -0.492975
1 9.30539 -3.81185 -0.0125522
1 9.87108 -4.41058 -0.46534
1 10.1207 -3.92289 -1.2229
1 -8.58122 8.79322 -9.38807
1 -8.9807 9.40595 -8.80474
1 -9.47946 9.64594 -8.06834
1 -9.61617 8.86712 -7.4691
1 -10.1703 8.56452 -8.14853
1 10.2752 7.99208 -8.18807
1 -10.2618 7.78672 -8.82978
1 10.2226 7.29784 -9.14593
1 -10.161 6.82687 -9.21763
1 -10.1486 7.0454 -10.1644
1 0.549829 2.77109 -8.51764
1 0.840357 3.58623 -7.97088
1 1.33897 4.04237 -7.39055
1 0.840288 3.43445 -6.8584
1 0.695606 2.61608 -7.39886
1 1.0392 2.18137 -6.65384
1 1.22628 1.53293 -5.98587
1 0.484031 1.1903 -6.46526
1 0.598324 1.52418 -7.32739
1 0.273818 0.598794 -7.52806
1 5.21292 -5.4 5.56001
1 5.59237 -4.78328 5.0328
1 5.12802 -3.92872 4.87197
1 5.81215 -4.10078 4.14814
1 6.45671 -3.67057 3.68492
1 6.74667 -3.4728 2.81851
1 6.50033 -4.11048 2.12107
1 6.28052 -4.93896 1.6715
1 5.56963 -5.49594 1.89213
1 6.32912 -5.56342 2.46601
1 -10.5128 -0.171773 -4.712
1 -9.70891 0.432488 -4.63901
1 -8.78139 0.15758 -4.70759
1 -7.85612 -0.0675028 -4.54241
1 -7.34544 -0.395635 -3.79345
1 -6.7684 -1.10699 -3.90847
1 -6.71693 -1.56959 -4.71063
1 -7.66238 -1.47999 -4.52552
1 -8.53139 -1.67926 -4.84583
1 -8.74373 -0.863138 -4.40394
1 -3.01188 4.41366 9.07306
1 -2.73648 4.31013 9.98767
1 -2.7584 4.00296 -10.3299
1 -2.31817 4.89315 -10.272
1 -2.40873 5.62673 -9.7275
1 -2.42714 6.53636 -9.39228
1 -2.34587 7.07208 -8.52192
1 -3.069 7.39545 -7.91682
1 -3.89434 6.89681 -7.54772
1 -4.09424 6.46593 -6.73101
1 -10.5175 5.84949 -5.3748
1 10.3398 5.96922 -6.26554
1 10.5109 6.9829 -6.27071
1 -10.2428 7.52955 -5.54873
1 -10.0639 6.67181 -5.04014
1 -9.80437 6.34824 -4.14909
1 -10.5962 5.90789 -4.2775
1 9.84062 6.22354 -4.61557
1 9.23877 6.40134 -3.92391
1 8.70487 6.18466 -4.7
1 -0.752561 0.0322881 1.77766
1 -0.701233 0.954479 1.73665
1 -0.144697 1.81294 1.78393
1 -0.564834 2.43609 1.31733
1 -0.756218 2.80589 2.2035
1 -0.428819 2.84724 3.11636
1 -1.18064 2.22765 3.42907
1 -0.850877 1.88526 2.61894
1 -0.594446 1.0012 2.77619
1 0.395285 1.30801 2.68933
1 3.61162 -9.40958 3.15946
1 3.91258 -10.181 2.68127
1 3.9888 10.5829 3.4975
1 4.00512 9.77173 3.93663
1 3.15568 10.1465 4.19536
1 2.22803 9.87361 4.18498
1 1.28233 9.95752 4.35765
1 1.67165 9.12305 4.34902
1 1.09455 8.81009 3.62789
1 1.76526 8.23985 3.94309
1 -10.1059 4.3068 -8.35521
1 -9.32706 4.54902 -8.78032
1 -9.86592 5.38392 -8.67097
1 -10.0072 4.8362 -9.44014
1 -10.3656 5.29353 -10.2101
1 -10.5136 5.48603 10.1273
1 -10.3215 4.60278 10.2046
1 -9.42534 4.9689 10.1509
1 -9.37413 4.39437 -10.353
1 -9.87303 3.81104 -9.75174
1 4.14185 -8.6416 8.63356
1 4.83997 -9.29783 8.74841
1 4.26403 -9.52767 8.04299
1 4.63221 -8.72384 7.5939
1 3.68957 -8.57203 7.60534
1 3.09146 -7.77265 7.5732
1 2.96349 -8.02243 6.70368
1 2.50093 -7.23554 6.97014
1 1.75515 -7.76228 6.77007
1 0.89227 -7.51828 6.52565
1 9.43715 3.50885 -8.36987
1 10.3464 3.48873 -8.83078
1 10.4829 2.91848 -8.0195
1 -10.5619 2.50591 -7.18224
1 -9.86353 2.10511 -6.66989
1 -10.0869 1.3457 -7.1678
1 10.3447 1.55877 -6.5672
1 9.50578 1.97457 -6.43857
1 9.59122 2.89196 -6.18827
1 10.497 2.69986 -5.95512
1 -2.30008 10.588 3.86005
1 -2.53571 9.74208 3.59253
1 -3.30913 9.42507 3.99657
1 -4.10961 9.89506 4.22593
1 -4.95863 10.3105 4.30259
1 -5.42758 -10.0203 4.18735
1 -4.84914 -9.74238 4.90708
1 -3.99755 -10.2342 4.80056
1 -3.65184 -9.46254 5.33086
1 -2.78369 -9.19096 5.08071
1 7.26517 1.34097 8.27831
1 6.5806 1.95636 8.15398
1 6.36759 1.42781 8.84852
1 6.17624 1.12506 9.65975
1 7.03991 1.3211 9.8437
1 6.96577 2.27106 9.72699
1 6.50341 2.33571 10.5867
1 7.18332 2.52351 -10.1332
1 6.99445 3.48495 -9.76348
1 7.95751 3.6263 -9.57814
1 6.40366 -8.11335 -3.68467
1 7.23417 -8.57958 -3.55388
1 6.66767 -8.9444 -4.28812
1 5.78513 -9.22008 -4.12438
1 5.54652 -8.32294 -4.38112
1 5.411 -8.01369 -5.23957
1 5.62228 -7.21592 -4.63568
1 4.98411 -7.13374 -3.92731
1 4.62254 -6.3436 -4.378
1 4.39344 -5.58562 -5.04737
1 6.01604 9.07254 -8.29403
1 5.10544 9.33683 -8.50587
1 5.67252 9.75043 -9.18888
1 4.83796 9.81332 -9.44455
1 4.30686 10.0982 -8.68951
1 4.12766 -10.3942 -9.26438
1 3.31099 10.5333 -8.82629
1 3.27843 9.8878 -8.10992
1 3.9192 9.24742 -8.3505
1 4.13391 8.80854 -9.19611
1 5.19912 5.77769 -8.42297
1 5.91216 5.67094 -7.75654
1 6.11242 6.45273 -8.30293
1 6.95124 7.02655 -8.22899
1 7.29909 6.95771 -7.3133
1 7.9222 6.15119 -7.22347
1 7.4619 6.36078 -6.4056
1 6.81173 6.92405 -5.96309
1 7.03734 7.8281 -5.57854
1 6.89706 8.79994 -5.62297
1 2.17063 -8.05974 9.87893
1 3.02398 -7.61213 10.1154
1 3.62379 -7.04347 9.48729
1 3.5005 -7.86618 8.99999
1 2.77892 -8.30548 8.56085
1 2.69263 -9.12838 8.06905
1 2.41344 -8.55788 7.3266
1 2.33802 -9.16409 6.55197
1 2.71425 -9.63723 5.77861
1 2.93648 -8.80014 5.34951
1 1.09098 3.24835 5.64221
1 1.05669 3.91891 6.28371
1 0.785419 4.82225 6.24803
1 0.243781 4.4281 6.94933
1 -0.613831 4.01214 6.80229
1 0.0523827 3.44496 7.24993
1 0.0974242 3.0428 6.33131
1 -0.353648 3.57203 5.6148
1 -0.273442 4.31737 5.06112
1 -0.0180564 3.5032 4.6602
1 -3.83341 5.90401 8.27583
1 -4.17514 6.27087 9.10174
1 -3.38208 5.74508 9.27151
1 -2.888 6.39566 8.79617
1 -1.99761 6.34021 9.11644
1 -2.35069 5.35099 9.36891
1 -2.83408 5.49517 10.2665
1 -3.47055 5.1621 -10.2919
1 -3.05521 4.63347 -9.59168
1 -3.75585 4.23538 -10.0603
1 -9.89575 -3.71754 0.462201
1 -10.0536 -2.75963 0.478221
1 -9.47676 -1.98424 0.710692
1 -8.80381 -2.52011 0.276662
1 -9.47117 -2.51664 -0.416705
1 -10.0592 -1.81563 -0.455313
1 -10.6202 -1.20955 -0.853976
1 10.2492 -1.29276 -1.86925
1 9.86306 -2.11474 -2.11858
1 9.6297 -2.77256 -2.71869
1 3.46243 -6.9004 -3.0558
1 3.47048 -6.01051 -3.40101
1 3.67893 -6.08333 -4.34252
1 3.39497 -6.97595 -4.28955
1 3.63628 -7.83813 -4.67699
1 3.68168 -8.43399 -3.89056
1 4.05182 -7.84045 -3.20529
1 4.05274 -7.51024 -2.28675
1 4.91712 -7.98363 -2.3993
1 4.18337 -8.55252 -2.26222
1 10.6213 -10.1328 -4.58044
1 10.1721 10.3371 -4.84946
1 10.1835 10.4805 -5.79347
1 10.2919 10.2229 -6.75159
1 -10.211 9.50731 -6.82788
1 -9.88717 10.2991 -7.28641
1 -9.09564 9.79821 -7.03215
1 -8.81479 10.5212 -7.57397
1 -9.28539 -9.95844 -7.2212
1 -8.32192 -9.94467 -7.11594
1 3.03499 -4.5614 1.79154
1 2.16927 -4.2698 1.51468
1 2.10225 -3.81594 0.619704
1 2.47593 -3.70326 -0.23679
1 3.33709 -3.68825 -0.764526
1 4.21798 -3.39618 -0.991426
1 3.77245 -2.63009 -0.612502
1 3.56458 -2.14575 0.234566
1 2.94612 -2.86426 0.304695
1 3.42651 -3.01662 1.07659
1 -2.72449 -2.84484 -9.43125
1 -3.20224 -3.38139 -8.71728
1 -3.50948 -2.49746 -8.65592
1 -3.97198 -3.01409 -9.46158
1 -3.95129 -4.02202 -9.43566
1 -3.21555 -3.7082 -9.89202
1 -2.95927 -3.86053 10.4505
1 -3.70139 -3.25507 10.4492
1 -3.23574 -2.48808 -10.4334
1 -3.86043 -1.84626 -10.2706
1 -8.34852 2.90816 10.0388
1 -8.94382 3.73242 9.89503
1 -8.32829 4.48549 9.9631
1 -7.79263 3.71517 9.68473
1 -7.26988 3.6139 10.5586
1 -8.17193 3.6078 -10.4362
1 -8.16296 2.7876 -9.91873
1 -7.57327 2.54331 -9.23237
1 -8.2297 2.95305 -8.64953
1 -8.90847 3.21431 -9.25828
1 -4.49075 6.4702 -2.47674
1 -5.03841 7.17108 -2.8275
1 -4.81077 7.98882 -3.36647
1 -5.39539 8.5883 -3.9142
1 -6.2168 8.01675 -3.95652
1 -6.25294 7.89462 -4.88915
1 -6.62793 7.66677 -5.73709
1 -6.41346 7.66456 -6.6816
1 -6.2163 6.75352 -6.43277
1 -6.91002 6.1543 -6.40853
1 -8.89761 7.94694 -4.07798
1 -8.64862 8.84354 -4.40382
1 -8.51404 9.16404 -3.51241
1 -9.2803 8.67858 -3.08351
1 -9.18228 7.72895 -3.11906
1 -9.10876 6.9996 -3.69978
1 -8.23231 7.20106 -4.0575
1 -8.15665 7.63957 -4.85982
1 -7.24187 7.58696 -4.60388
1 -7.01271 8.49952 -4.37873
1 8.82483 9.69024 7.30939
1 9.40793 10.0257 6.53321
1 8.89156 9.28927 6.13507
1 9.67852 8.72502 6.32959
1 10.0272 8.21097 7.12724
1 9.269 8.73557 7.3767
1 8.6918 8.14512 7.86986
1 8.14419 8.78269 7.49526
1 7.73576 8.76061 8.34243
1 7.65119 9.6019 7.93823
1 -0.122052 -10.0231 7.28888
1 -0.54112 -9.13581 7.44726
1 -0.94931 -9.14194 6.54583
1 -0.449224 -9.81358 6.14392
1 0.138405 -10.6028 6.33713
1 -0.639782 10.2118 6.72783
1 -1.27527 -10.587 6.10099
1 -1.66443 10.1873 5.34273
1 -2.45014 10.1091 4.83864
1 -1.68055 9.81112 4.31914
1 -0.644607 4.8983 -2.36887
1 -0.486065 3.94305 -2.48191
1 0.159597 3.15769 -2.27777
1 0.235257 2.72254 -3.102
1 -0.130757 3.49201 -3.55335
1 -0.696293 3.21626 -4.26136
1 -0.113538 3.12531 -5.0099
1 -0.476499 4.05351 -4.85067
1 -0.00313381 3.89628 -5.65959
1 0.447409 3.02909 -5.93726
1 9.79207 -0.588313 -3.46072
1 8.88034 -0.669154 -3.56078
1 8.98273 0.25047 -3.54004
1 9.65236 0.515341 -2.9294
1 10.576 0.504809 -3.05352
1 -10.4327 -0.120381 -3.74677
1 9.92574 0.272486 -3.96703
1 9.41317 0.584978 -4.67496
1 9.01417 1.11698 -4.04146
1 8.14149 1.11708 -3.60082
1 6.57211 -4.63069 -3.23902
1 6.02312 -4.10192 -2.7017
1 5.59371 -3.29305 -2.43249
1 6.1708 -3.38556 -1.68725
1 6.01935 -4.14511 -1.1605
1 6.74602 -4.75775 -1.32794
1 6.24491 -4.85886 -2.17753
1 6.99263 -4.29612 -2.39561
1 7.27432 -3.44871 -2.20764
1 7.18954 -3.61595 -1.23833
1 0.919084 9.93693 -4.33203
1 0.495403 9.46848 -4.9608
1 1.14299 9.64711 -5.64009
1 1.56781 10.3061 -5.11321
1 1.96597 10.0127 -4.30237
1 2.88661 9.92913 -4.53954
1 3.60546 10.524 -4.77232
1 4.24659 -10.5846 -4.04563
1 4.53167 -9.73632 -3.60743
1 4.42143 -9.45226 -2.68598
1 -7.28008 -5.57221 7.86342
1 -6.97617 -6.03793 7.06967
1 -7.77437 -5.91271 6.57208
1 -7.79994 -6.79382 6.10682
1 -8.80318 -6.89354 6.27756
1 -8.7101 -6.09682 6.7959
1 -8.82852 -6.72475 7.48006
1 -7.89438 -6.89496 7.49761
1 -8.2386 -6.90138 8.38758
1 -8.8486 -7.54959 8.61583
1 -6.08575 3.63142 8.09278
1 -6.71552 4.35652 8.16298
1 -6.28307 4.82987 8.89928
1 -6.5658 4.4926 9.81945
1 -7.29725 4.61025 9.19468
1 -7.69411 4.68282 8.31306
1 -8.46273 5.076 7.96792
1 -8.32167 5.76558 8.68646
1 -7.92424 5.40809 9.44798
1 -7.74273 6.28785 9.6654
1 -2.4527 4.69875 -8.737
1 -1.64241 4.89349 -9.31881
1 -0.935615 5.36891 -9.01844
1 -0.865 6.24982 -8.69182
1 -1.53567 6.21282 -8.05204
1 -2.01014 5.72101 -8.72697
1 -1.54481 5.01936 -8.23626
1 -0.691503 4.49134 -8.25953
1 -0.345277 4.47006 -9.15693
1 0.275765 4.09183 -9.75771
1 9.92533 -4.10559 -3.8476
1 9.31173 -4.65172 -3.36793
1 8.69294 -5.35767 -3.41783
1 8.69014 -6.05516 -2.79846
1 9.50661 -5.79669 -3.15263
1 9.78433 -6.65389 -2.64068
1 9.23297 -7.3015 -3.03633
1 8.67456 -6.9546 -2.34245
1 7.78744 -7.31379 -2.14444
1 7.85863 -8.08256 -1.56042
1 10.3789 -7.30904 3.76091
1 10.2279 -7.17178 2.81107
1 9.7932 -6.45621 2.38688
1 10.4156 -6.74056 1.70607
1 -10.6051 -7.26261 0.968915
1 10.0588 -7.87205 0.474586
1 10.4516 -8.6943 0.882601
1 -9.87552 -8.64974 0.633518
1 -9.46764 -8.83173 -0.304817
1 -9.14333 -9.42533 -0.972543
1 5.15795 -8.25819 1.59576
1 5.62371 -8.08017 0.735883
1 5.10891 -8.85355 0.578561
1 4.98788 -9.74352 0.544837
1 5.63799 -9.78606 1.2496
1 5.41941 -10.1073 2.11167
1 6.10498 -9.33055 2.42956
1 6.37481 -9.03965 3.28761
1 6.50818 -8.37099 2.69538
1 6.71577 -8.02563 3.63162
1 -7.84352 -8.02328 -5.12193
1 -7.22361 -7.4001 -5.40625
1 -6.62153 -8.14209 -5.28497
1 -6.1691 -7.27426 -5.16165
1 -5.43844 -7.56526 -5.70602
1 -4.75795 -8.12071 -6.27096
1 -4.51739 -9.03794 -6.42604
1 -4.49581 -8.51223 -7.21657
1 -4.48759 -7.55746 -7.26431
1 -4.09055 -7.09797 -6.55546
1 10.0404 -1.53224 -2.99819
1 9.19147 -1.36119 -2.60686
1 8.45011 -0.979618 -2.22262
1 8.0762 -0.166203 -1.66504
1 7.12927 -0.124566 -1.82569
1 6.77127 0.432247 -1.025
1 6.09203 1.06689 -1.28925
1 5.75091 1.8639 -0.920796
1 5.1698 2.27179 -0.248852
1 4.28272 1.98346 -0.465913
1 3.17599 -4.279 5.11076
1 4.08356 -3.87491 5.09683
1 3.61389 -4.15747 4.30601
1 4.48742 -3.89623 4.15755
1 4.79361 -2.93435 4.13862
1 3.80942 -2.82777 4.24374
1 4.13272 -3.11529 3.42646
1 4.55569 -3.55774 2.62571
1 3.73175 -3.63023 1.97947
1 4.2734 -2.79984 1.97678
1 -9.02789 9.82375 -2.82809
1 -8.77654 10.1922 -3.64319
1 -8.88341 10.6205 -4.51412
1 -9.37445 9.82805 -4.38517
1 -9.47339 9.06202 -4.9424
1 -9.53969 8.08559 -4.90513
1 -10.459 8.16831 -4.82224
1 10.3121 7.3728 -4.49171
1 9.61715 7.9712 -4.29527
1 9.66723 8.06138 -5.27447
1 2.8962 -4.55891 8.8313
1 2.43443 -3.74185 8.7788
1 1.96436 -3.18918 8.10893
1 1.47208 -3.50677 7.35645
1 1.19641 -3.12282 6.48497
1 0.951684 -3.20298 5.5982
1 1.3904 -2.43195 5.7905
1 1.37862 -1.74633 5.10866
1 2.02322 -1.04256 5.36735
1 1.46729 -1.34412 6.13553
1 8.99775 -3.06921 8.68199
1 8.327 -2.42999 8.89462
1 7.59475 -2.37857 9.64582
1 6.81202 -1.72614 9.48254
1 6.93186 -1.66377 8.59512
1 7.33826 -2.58134 8.69056
1 6.52409 -2.81459 8.27018
1 5.99118 -2.19942 8.71723
1 5.11855 -2.11349 8.34561
1 5.28786 -3.04046 8.32227
1 -9.02115 4.46502 -5.88842
1 -8.9968 5.13108 -6.55897
1 -8.72686 5.36851 -5.67063
1 -8.19113 5.90543 -6.24132
1 -8.23312 6.08882 -7.20331
1 -8.32876 7.00773 -6.87474
1 -7.82152 7.13137 -7.70468
1 -8.73183 6.88357 -7.85846
1 -9.22279 7.67898 -7.44069
1 -10.1221 7.70282 -7.40222
1 5.9939 -2.92002 -4.35469
1 5.63445 -3.45833 -5.02152
1 4.68115 -3.68297 -4.67978
1 4.2338 -4.41766 -4.9846
1 3.41228 -4.81339 -4.72411
1 3.45318 -5.40491 -5.41835
1 2.92118 -6.02722 -4.94402
1 2.51824 -6.64184 -5.5384
1 2.1536 -7.26531 -4.86927
1 1.22594 -7.05873 -4.825
1 -1.43248 -6.64223 7.19436
1 -2.31387 -6.13227 7.18746
1 -1.55956 -5.49027 7.34633
1 -1.03289 -5.62613 6.54963
1 -0.369002 -6.19182 6.95748
1 -0.475097 -6.99195 7.45791
1 0.479357 -7.01125 7.75992
1 0.832306 -7.81967 8.11869
1 1.0298 -7.8789 9.00127
1 0.164736 -8.30842 8.89913
1 3.98071 -1.64306 9.77834
1 3.89111 -1.51784 8.87637
1 4.53921 -1.17808 8.2939
1 5.44062 -0.874508 8.24537
1 4.8102 -0.17725 8.3365
1 4.03618 -0.317979 8.89658
1 3.73952 0.334185 8.29916
1 3.73513 1.30358 8.47607
1 3.70127 1.30568 7.50837
1 4.11784 1.75231 6.81
1 7.1698 -9.07418 0.407112
1 7.52993 -8.59758 -0.292097
1 6.83339 -7.96854 -0.282952
1 6.06641 -7.9296 -0.852711
1 6.07926 -6.95473 -0.802404
1 5.72613 -7.09716 0.0666919
1 5.0286 -6.62932 -0.248162
1 5.08387 -7.3501 -0.969355
1 4.34086 -7.88059 -1.02025
1 3.49305 -8.1518 -1.41673
1 -7.44613 10.1169 -10.4284
1 -6.60422 10.5174 10.3962
1 -6.65405 -10.4547 9.50916
1 -7.57063 -10.4509 9.7445
1 -7.92402 -9.83282 10.4436
1 -8.0113 -9.15765 -10.0718
1 -7.50217 -9.87929 -9.74679
1 -6.56296 -10.0945 -9.82018
1 -5.91412 -10.1011 -10.5299
1 -5.45386 -9.23363 -10.4758
1 3.50052 -2.92369 5.24457
1 3.76459 -2.03586 4.90539
1 4.04728 -1.17784 4.7739
1 4.1422 -0.525671 4.07111
1 5.03062 -0.808805 4.36335
1 6.03152 -0.818534 4.33601
1 6.24372 -1.67001 4.06791
1 5.40109 -1.99649 4.14088
1 5.29559 -1.25137 3.48792
1 4.3188 -1.36232 3.60437
1 -6.42889 3.17688 5.2179
1 -6.84295 4.01559 5.24724
1 -7.34751 4.06883 4.36489
1 -8.25088 4.07837 4.63235
1 -8.68604 4.90388 4.93878
1 -9.46102 4.51359 4.63491
1 -8.99714 4.07406 3.86661
1 -9.63903 4.87375 3.72851
1 -10.5409 5.21656 3.50464
1 -9.7837 5.82477 3.86487
1 -6.56837 8.93294 -9.88987
1 -7.49272 8.79326 -9.97221
1 -7.86011 7.97434 -9.58379
1 -8.57394 7.59151 -10.046
1 -8.32507 8.19494 10.5714
1 -7.71878 7.46177 10.4832
1 -7.33508 6.98409 -10.0159
1 -7.04229 6.32906 10.5299
1 -6.12413 6.49754 10.3799
1 -5.44541 6.06746 -10.3618
1 4.62698 -8.91892 -8.85949
1 4.07532 -8.34975 -9.45344
1 4.58437 -7.54148 -9.69732
1 5.37586 -7.07597 -9.36607
1 6.13131 -6.46844 -9.39669
1 5.99419 -7.0343 -8.55639
1 6.08582 -6.68648 -7.74352
1 6.76236 -6.01856 -7.83327
1 6.95557 -6.3076 -8.69754
1 6.77027 -5.62587 -9.38655
1 -3.38425 9.33287 -9.47107
1 -3.24897 9.00197 -10.3816
1 -3.88595 9.37575 10.3389
1 -3.46407 10.1442 -10.5952
1 -2.97619 -10.2857 10.5853
1 -3.41493 -9.59423 10.045
1 -3.26788 -8.94552 9.35303
1 -2.66726 -8.23028 9.39512
1 -3.12683 -7.4748 9.0389
1 -3.37522 -7.38779 8.10823
1 -6.46998 -9.07591 -10.1761
1 -6.19994 -8.71069 10.2604
1 -6.82339 -9.42463 10.1962
1 -7.36278 -8.69689 9.89721
1 -7.76446 -8.11582 10.5132
1 -8.45216 -7.97702 9.78698
1 -9.26833 -8.16027 10.417
1 -9.8297 -8.89554 10.1831
1 -10.2724 -7.9871 10.1131
1 -10.279 -8.23479 -10.2402
1 9.29186 1.10128 -0.322252
1 9.33029 1.96533 -0.842404
1 8.97425 1.33797 -1.45185
1 9.75731 0.790837 -1.42741
1 10.1365 1.64488 -1.39388
1 9.78894 1.56456 -2.29527
1 -10.6067 1.43919 -2.62852
1 -10.5717 2.14298 -3.25899
1 -10.3215 2.78955 -3.95862
1 10.3288 3.49294 -4.15552
1 -9.58139 4.44356 9.11185
1 -9.91505 3.5392 9.19955
1 -9.94799 3.48832 10.1121
1 -10.0173 2.7698 -10.4823
1 -9.80284 2.44815 9.86356
1 -10.3619 1.80127 9.31288
1 -9.7959 1.16495 8.89626
1 -8.85018 1.02982 8.63559
1 -8.94582 1.6924 8.00013
1 -9.62727 2.19469 7.66796
1 2.8134 8.78183 7.64604
1 3.36233 8.31726 8.27947
1 3.26059 9.18551 8.53468
1 2.47538 8.83154 8.96312
1 1.5859 9.16588 9.1087
1 1.85053 9.94747 9.54732
1 2.68722 10.2499 9.36713
1 2.14798 -10.2973 9.81333
1 2.21739 -10.0012 -10.4827
1 2.68732 10.3562 10.5571
1 -7.08073 6.5294 -7.34877
1 -6.68851 7.28158 -7.86506
1 -6.25455 6.81978 -8.57821
1 -5.79582 6.43534 -7.79315
1 -5.00732 6.61049 -7.27275
1 -5.2926 7.40595 -6.84205
1 -5.69267 7.62704 -7.69814
1 -4.93854 7.99842 -8.3188
1 -5.28978 7.2642 -8.77751
1 -4.56037 7.03781 -9.46334
1 -4.5571 7.23095 8.11282
1 -4.56234 7.7515 7.27072
1 -4.0473 8.12265 7.958
1 -4.02818 8.20166 8.95495
1 -3.4704 7.62069 9.54941
1 -4.05087 7.02632 9.9407
1 -4.93461 6.5736 10.1087
1 -5.23574 7.23933 -10.4785
1 -4.52654 7.76661 -10.1252
1 -3.79139 8.10045 -9.60425
1 0.816151 1.82565 -9.13254
1 0.311519 1.75252 -8.31704
1 -0.548258 1.53586 -7.94151
1 -1.02702 2.10706 -7.34832
1 -1.3636 2.42247 -6.51458
1 -1.92251 2.23363 -5.69312
1 -1.30002 2.83428 -5.31967
1 -0.484598 2.57394 -5.82336
1 -0.163063 2.20668 -6.68005
1 -0.573845 1.35539 -6.62436
1 -0.207116 0.239247 5.34577
1 -0.366324 -0.686449 5.2618
1 -1.05239 -0.430767 5.8655
1 -1.87261 -0.853348 6.15682
1 -1.66998 -1.38974 5.38419
1 -2.09374 -0.541331 5.21647
1 -2.72705 -1.24539 5.40447
1 -2.41291 -1.99313 4.90382
1 -1.89753 -2.74265 4.68187
1 -2.43802 -3.42769 4.28557
1 -6.5983 -7.70218 -6.26997
1 -5.81101 -8.09113 -6.69073
1 -5.39043 -7.23457 -6.80291
1 -5.89218 -6.63536 -6.2719
1 -5.00718 -6.45445 -6.06016
1 -5.34137 -5.6833 -5.61199
1 -6.18089 -5.89937 -5.20795
1 -5.42073 -6.51546 -5.0106
1 -5.62006 -5.85082 -4.21943
1 -5.48758 -4.97073 -4.59996
1 7.00912 -10.0001 0.135441
1 7.04541 10.3118 0.136278
1 6.36692 10.0773 -0.521792
1 6.27854 9.24542 -1.0828
1 5.45173 9.69156 -1.21713
1 5.36249 9.05179 -0.479924
1 5.46621 8.27529 -1.06483
1 5.131 7.48463 -0.643864
1 6.01952 7.16263 -0.333526
1 6.76663 7.12821 -0.858913
1 -9.32357 2.57885 6.54796
1 -8.70741 1.81597 6.5373
1 -8.74429 0.871431 6.44934
1 -7.92812 0.580118 6.00045
1 -8.52343 0.0690456 5.46979
1 -7.7734 -0.422741 5.15538
1 -7.04929 0.0708637 5.48556
1 -6.12687 0.0705216 5.37044
1 -5.92592 -0.208341 4.47619
1 -5.24116 -0.498854 5.04583
1 10.0856 -7.06279 -0.673712
1 9.63038 -6.89448 0.135619
1 10.0254 -6.49143 0.846513
1 10.1082 -5.87623 0.140553
1 10.5113 -5.90081 -0.704352
1 10.5899 -5.02384 -1.09665
1 9.99349 -4.80375 -1.79933
1 9.43251 -5.57092 -2.02976
1 9.82458 -6.29426 -1.48769
1 8.81786 -6.33587 -1.55257
1 3.13406 8.17913 5.66599
1 2.77439 9.03627 6.00398
1 2.87655 9.71099 5.23663
1 3.7755 9.75662 5.47807
1 4.35948 10.1913 6.11807
1 4.49231 9.81715 7.05247
1 4.78452 -10.4649 7.15103
1 5.1721 -9.62524 7.30827
1 5.63093 -8.70216 7.12851
1 5.01901 -8.06767 6.71757
1 3.62446 -1.41906 7.28858
1 3.89745 -0.639483 7.83454
1 3.10401 -0.928876 8.26733
1 2.70683 -0.176548 8.73125
1 1.83715 -0.557336 8.59295
1 1.4339 -1.31071 8.99147
1 1.2291 -1.4706 9.91391
1 2.19742 -1.42167 10.1077
1 2.39395 -1.30703 -10.1826
1 1.69876 -0.74059 -10.6035
1 10.3438 4.72137 -2.48207
1 10.4208 5.36817 -3.19798
1 9.6324 5.49215 -2.51565
1 8.87447 5.54282 -3.15983
1 8.37372 4.92895 -3.76766
1 8.27206 4.45672 -4.6112
1 9.0106 4.78381 -5.11161
1 9.6525 5.3209 -5.63578
1 10.1879 5.01916 -4.8982
1 9.64747 5.28798 -4.17743
1 -5.98884 4.37842 1.142
1 -5.39307 5.07391 1.31594
1 -6.007 5.71639 1.60342
1 -6.57659 6.22758 1.0186
1 -6.53713 5.29412 0.894317
1 -6.98125 4.7067 0.296148
1 -7.6165 4.91586 0.955884
1 -8.19972 5.39946 0.401861
1 -7.44258 5.75153 -0.147742
1 -6.69397 5.40837 -0.523312
1 -3.70763 1.25757 -7.42989
1 -4.0023 0.560092 -6.85077
1 -4.36322 1.1207 -6.17764
1 -4.55882 1.69392 -6.88368
1 -5.15407 0.843172 -6.90836
1 -6.0682 0.82445 -7.06221
1 -6.38076 1.154 -7.92497
1 -5.45993 1.27271 -8.24495
1 -5.28047 0.659874 -8.96754
1 -4.38012 0.887759 -9.07955
1 9.00966 4.56362 -10.4249
1 9.86193 4.88435 10.4275
1 9.6405 5.27588 -9.96339
1 9.77291 6.13608 -9.46682
1 10.6016 5.64884 -9.26888
1 -9.82958 5.9288 -9.66592
1 -9.22162 6.33981 -10.261
1 -9.79003 6.16848 10.2176
1 -8.88108 6.15091 10.0057
1 -8.23665 6.48165 10.6168
1 8.57749 3.11348 -6.61371
1 8.2507 2.26962 -6.21096
1 7.34389 2.17493 -6.43035
1 6.36768 2.24467 -6.50843
1 6.60223 3.17787 -6.61529
1 7.13491 2.65515 -7.25361
1 6.82095 3.50562 -7.64599
1 7.81722 3.66128 -7.78643
1 8.32782 4.40188 -7.65107
1 8.8048 3.64417 -7.47558
1 -2.40811 4.83877 -1.36912
1 -2.48523 3.93392 -1.60792
1 -1.68088 3.91997 -2.15282
1 -1.79076 3.00462 -2.2937
1 -0.975686 3.14122 -1.81763
1 -0.20947 3.6399 -1.34805
1 0.355827 3.26275 -0.600181
1 0.361052 4.23025 -0.305985
1 0.183479 3.51559 0.448186
1 -0.559129 3.89075 -0.0433125
1 -0.318067 -7.56281 2.74585
1 0.434286 -7.82851 3.28823
1 0.207041 -8.64693 2.80355
1 -0.208272 -9.2835 2.19558
1 -0.733148 -9.17602 2.96963
1 -0.768025 -8.83197 3.83476
1 -0.366585 -9.6658 3.86917
1 0.468554 -9.83467 4.38006
1 0.906467 -9.05374 4.57778
1 0.221035 -8.828 3.82179
1 1.40672 -6.79471 7.0803
1 1.01004 -5.95534 7.01442
1 1.78005 -5.94373 7.52178
1 2.37349 -5.1741 7.56179
1 1.59347 -4.64782 7.25459
1 1.05523 -4.99426 6.48259
1 0.698547 -4.27212 6.93307
1 0.0782748 -5.05249 6.93356
1 -0.50674 -5.20287 7.68618
1 -1.25997 -5.14572 8.23815
1 -3.02805 -4.81724 -2.47226
1 -3.3281 -4.81591 -1.54317
1 -4.14339 -5.12959 -1.91385
1 -4.00724 -5.30565 -2.81566
1 -4.86129 -4.97785 -2.76956
1 -5.0705 -4.72133 -3.64544
1 -4.91069 -3.97256 -4.17291
1 -4.96099 -3.06764 -3.99594
1 -5.3193 -3.27083 -4.84312
1 -5.80205 -2.60275 -5.33495
1 3.23558 -2.35782 -6.97998
1 2.35399 -2.60427 -6.53131
1 1.84949 -2.23328 -7.18127
1 2.52078 -1.98291 -7.93394
1 3.43849 -1.49766 -7.9514
1 3.09029 -1.29211 -8.82978
1 2.79339 -0.442748 -8.51055
1 3.08256 -0.184172 -9.41538
1 3.32544 -0.648258 -10.1631
1 3.50539 -1.49399 -10.5515
1 -0.797939 9.07084 7.36721
1 -0.973111 8.26397 7.87752
1 -0.280613 7.87017 7.34846
1 0.0747538 8.56682 7.88072
1 0.573211 9.40697 8.02446
1 0.183357 9.01929 8.771
1 0.594676 9.32461 9.57263
1 0.366631 8.76553 10.3624
1 0.0888689 9.26068 -10.1063
1 -0.256794 8.35804 -10.0454
1 1.9972 -1.34061 -8.65603
1 1.7737 -0.910806 -9.44019
1 2.04279 0.00999301 -9.14792
1 1.63775 0.850419 -9.21495
1 2.36181 0.889618 -8.58198
1 3.14969 1.5767 -8.51181
1 3.45385 1.19174 -9.31506
1 3.32916 0.476547 -8.61698
1 4.2735 0.686811 -8.39136
1 4.73283 -0.135872 -8.39504
1 -10.4759 0.259501 1.95337
1 -10.5814 0.678287 1.07712
1 -10.2404 0.626033 0.207227
1 10.3613 0.616611 -0.470337
1 10.4481 -0.0269294 -1.116
1 -10.4235 -0.30766 -0.285998
1 10.4888 -0.218252 0.586916
1 10.0683 -0.391025 1.36984
1 9.19735 -0.0667147 1.59504
1 9.48132 0.485573 0.897092
1 -3.98034 0.537271 -3.79098
1 -3.56613 0.153381 -3.00102
1 -2.99099 -0.111598 -2.32134
1 -2.57517 -0.704124 -2.94141
1 -3.51147 -0.8553 -2.85039
1 -4.39752 -0.959813 -2.45531
1 -4.93004 -0.333622 -1.94484
1 -5.11144 0.584873 -2.11186
1 -4.48437 0.373537 -2.78042
1 -5.23043 0.599433 -3.2792
1 -4.11537 6.78081 2.54107
1 -4.19999 6.4479 1.66935
1 -4.39106 7.36726 1.34172
1 -3.89866 7.97158 1.87233
1 -3.78767 8.9387 1.95134
1 -3.46531 8.93443 0.968161
1 -3.26345 9.55552 0.304099
1 -3.49705 10.4527 0.203795
1 -4.42815 10.3598 0.368094
1 -3.94588 9.98874 1.16778
1 -0.784614 9.37055 -0.253769
1 -1.3503 10.1502 -0.492833