8000
Atoms. Timestep: 0
1 7.22146 1.47717 -7.72926
1 7.18065 2.30387 -8.16526
1 7.89835 2.95275 -8.27123
1 7.72777 3.63427 -7.66064
1 7.16254 4.39545 -7.99209
1 7.04358 5.21936 -7.4378
1 6.13015 4.98958 -7.77259
1 5.91 4.64932 -8.65682
1 6.01568 3.73746 -8.36694
1 6.76023 3.41689 -7.91782
1 3.65445 4.88824 10.0574
1 2.74038 5.03192 9.77833
1 2.75063 4.1036 9.46065
1 3.01169 3.21235 9.53044
1 3.47144 3.74356 10.1981
1 2.9985 4.44366 -10.0961
1 2.11079 4.16712 -10.35
1 1.15777 4.181 10.3045
1 0.503986 3.42425 -10.3652
1 -0.160764 4.03364 -10.118
1 8.06726 2.67662 -3.50246
1 7.62593 2.44095 -2.66568
1 8.20023 1.77229 -2.92998
1 8.60713 2.052 -2.15986
1 8.93303 2.75674 -2.68289
1 9.71587 2.17591 -2.5795
1 9.57208 1.90433 -3.47798
1 9.78365 1.02821 -3.14007
1 9.49462 0.78152 -4.00716
1 9.82677 0.77037 -4.94216
1 5.98717 -1.85714 7.70876
1 6.07118 -2.44879 6.92196
1 6.86402 -2.40608 6.43616
1 7.43192 -3.18525 6.45924
1 7.98897 -3.09397 5.71197
1 7.36567 -3.46679 5.03655
1 8.14143 -4.00248 4.81477
1 8.60902 -4.73429 5.25573
1 9.18959 -5.21547 5.92469
1 9.52179 -5.91196 5.42458
1 -4.46752 8.61491 -3.96937
1 -5.3393 8.9277 -3.73675
1 -5.23092 9.26761 -4.61164
1 -4.56692 8.73009 -5.1113
1 -4.1035 7.84861 -5.30305
1 -3.63902 7.67701 -4.50751
1 -3.00929 7.57298 -5.18882
1 -2.38268 7.64537 -4.46313
1 -1.42312 7.51998 -4.653
1 -0.780511 7.82139 -4.03761
1 4.58199 1.89172 1.18142
1 4.41828 1.39184 0.371043
1 4.11412 1.36551 -0.510397
1 3.51776 1.87906 0.00155098
1 2.94741 2.51289 0.47165
1 3.58189 2.25049 1.06415
1 3.68498 1.62526 1.86544
1 3.82947 1.51507 2.84898
1 3.55039 2.36018 3.07786
1 3.87794 2.79393 2.23871
1 3.18527 -5.60586 -2.71735
1 3.32706 -4.82684 -3.32354
1 3.65048 -4.00027 -3.49544
1 2.66912 -4.07323 -3.20433
1 2.3394 -4.37266 -4.12339
1 1.89167 -5.02155 -4.63048
1 2.21029 -5.44009 -5.42732
1 3.1677 -5.53891 -5.61603
1 2.74927 -6.13499 -6.16317
1 2.03778 -6.52308 -5.52905
1 -1.6423 -6.86144 -5.87358
1 -2.59404 -6.8706 -5.50778
1 -2.15984 -6.08098 -5.21652
1 -1.37729 -6.5969 -4.93268
1 -1.19171 -5.65458 -4.7298
1 -1.44449 -5.23993 -5.57691
1 -0.654676 -4.65479 -5.64334
1 0.0697738 -4.03619 -5.49191
1 0.920642 -3.62043 -5.56075
1 0.616176 -3.95358 -6.40939
1 -7.83934 -8.56092 -5.24607
1 -7.4485 -7.99806 -4.60625
1 -6.78098 -8.02732 -5.3247
1 -6.59745 -8.51875 -6.12666
1 -5.75908 -8.13704 -6.31707
1 -5.69617 -9.03429 -6.02092
1 -6.47801 -9.54752 -6.35711
1 -6.34459 -8.89422 -7.07395
1 -6.12879 -8.60017 -7.9935
1 -5.64589 -8.04621 -7.38876
1 4.53739 -3.15247 -1.66121
1 5.24651 -3.22064 -0.973768
1 5.48791 -3.034 -0.0702704
1 6.15226 -3.08413 0.683049
1 6.52187 -3.7044 0.0648333
1 5.57505 -4.04075 0.172489
1 5.87224 -4.21769 -0.748988
1 6.29866 -4.91959 -1.32713
1 6.8862 -4.64001 -0.591907
1 7.42549 -4.37554 0.151702
1 10.1728 -8.04719 7.48574
1 10.2467 -8.37161 8.40768
1 10.3445 -7.78601 9.14412
1 -9.47963 -7.89239 9.10344
1 -9.59511 -8.02421 8.15955
1 -9.70796 -8.97358 7.88733
1 -9.32602 -9.7935 8.08562
1 -9.98999 10.3521 8.12689
1 10.3179 9.56519 7.80036
1 10.0544 9.8906 8.65812
1 -2.63304 -3.8604 8.67172
1 -3.22841 -3.41825 9.26625
1 -3.01847 -2.77583 8.63542
1 -3.79674 -2.42515 8.13542
1 -3.2533 -1.9804 7.44564
1 -3.39743 -2.25677 6.53625
1 -4.07433 -2.60034 5.92857
1 -4.76989 -3.19235 5.48128
1 -4.52334 -2.45798 4.9118
1 -3.95388 -1.76545 5.15083
1 -0.50763 2.72259 2.11848
1 -0.759388 3.41283 1.45815
1 -0.543674 3.78332 0.533216
1 -1.11954 4.31417 1.0656
1 -0.294453 4.71247 1.3876
1 0.622119 4.67289 1.80063
1 1.59422 4.64996 1.82032
1 1.18727 4.70574 2.67037
1 0.799835 3.99015 3.12251
1 1.73134 3.95341 3.02118
1 -4.61456 7.1422 -4.3772
1 -4.5546 7.56506 -3.4511
1 -3.80108 6.98877 -3.44084
1 -4.26356 6.15773 -3.32415
1 -4.32288 5.20692 -3.2703
1 -3.79698 4.51601 -3.78234
1 -3.87128 3.72166 -4.26835
1 -2.93721 4.09716 -4.40027
1 -2.55271 4.911 -4.63453
1 -2.2599 5.69188 -5.08387
1 6.71155 -1.90129 8.58225
1 6.26872 -2.42047 9.31582
1 5.34411 -2.29334 9.54774
1 4.50571 -2.35895 10.0901
1 3.66051 -2.35646 9.5693
1 2.91444 -2.88908 9.77741
1 3.31433 -3.62655 9.32263
1 3.94222 -3.98724 9.95988
1 4.21439 -4.90205 10.068
1 5.11326 -4.84813 10.3607
1 -0.74294 -8.49831 -7.74671
1 -1.4746 -8.75734 -7.20486
1 -1.36831 -8.59964 -6.2612
1 -0.405095 -8.876 -6.50942
1 0.0382471 -8.01639 -6.57211
1 0.0889484 -7.9407 -7.51738
1 -0.120153 -7.13706 -7.08218
1 0.2786 -6.46291 -6.51256
1 0.378616 -6.57147 -5.57799
1 0.99112 -7.15699 -6.0831
1 9.37475 8.33262 2.26023
1 9.44092 7.43197 1.86947
1 9.78182 7.83783 1.05145
1 9.45647 8.80629 0.962474
1 9.039 9.07351 0.127178
1 9.16917 10.0261 0.0388007
1 8.60614 9.782 -0.725671
1 9.54617 9.88354 -0.924569
1 9.45345 8.86272 -0.856308
1 8.85886 8.15353 -1.2486
1 -3.26699 -9.21757 -7.52011
1 -3.81372 -9.96323 -7.52985
1 -4.62292 -10.1958 -7.08964
1 -4.09695 -10.1963 -6.2964
1 -3.26555 -9.89676 -6.69035
1 -3.50013 -9.02614 -6.44279
1 -4.21057 -9.06132 -7.10682
1 -4.94408 -9.11542 -7.69761
1 -5.02092 -8.68687 -8.54601
1 -5.54484 -9.32506 -9.04456
1 7.65663 -3.63087 -1.81189
1 8.38395 -3.55581 -2.47468
1 8.47885 -4.33877 -3.02437
1 8.3752 -3.57208 -3.53144
1 9.31917 -3.64291 -3.4654
1 9.6898 -2.80354 -3.62596
1 9.62891 -1.93704 -3.31095
1 -10.3195 -1.74681 -2.79168
1 -9.58917 -1.52688 -3.4235
1 -10.3079 -1.90765 -4.01265
1 1.82831 3.2904 -8.21533
1 1.01536 3.75623 -8.40995
1 0.678424 4.03607 -9.29401
1 1.34781 3.30766 -9.3953
1 0.510753 3.03457 -8.99641
1 -0.0223733 3.50872 -8.20376
1 -0.523513 4.38427 -8.0953
1 -0.883666 5.2308 -7.89865
1 -0.958358 4.7449 -7.12204
1 -1.20485 5.69422 -6.90163
1 3.8484 -3.93414 -1.53103
1 3.91922 -4.63254 -0.738695
1 4.78382 -4.49291 -0.314214
1 4.81571 -4.1169 -1.18657
1 5.58788 -4.34806 -1.74716
1 5.30107 -3.67731 -2.40428
1 5.76568 -3.68428 -3.31092
1 5.63651 -3.73541 -4.26908
1 6.11242 -4.41859 -3.89636
1 6.64464 -4.93281 -3.30452
1 6.54532 6.97905 1.85299
1 6.97934 7.40213 2.59617
1 7.94176 7.40249 2.60842
1 7.58922 6.73297 2.00294
1 7.75482 6.06576 1.38377
1 7.67082 5.42079 2.06489
1 8.05614 5.8312 2.7941
1 8.66338 6.09148 3.46583
1 8.02286 5.60875 4.06453
1 7.59177 6.41209 3.81795
1 -10.2414 -6.35273 5.4272
1 -9.2686 -6.46068 5.72089
1 -8.49584 -6.54299 5.01702
1 -9.12643 -7.36638 5.10058
1 -9.14647 -8.14058 4.5609
1 -9.80637 -7.54155 4.12862
1 -9.03672 -7.59732 3.62205
1 -9.56555 -7.03004 3.06823
1 -10.2167 -6.47053 2.72637
1 -9.49503 -6.00766 3.23252
1 10.0093 5.42463 -7.47202
1 9.54934 5.42488 -6.60692
1 9.06812 4.62288 -6.45184
1 8.78096 5.24456 -5.85009
1 8.7021 4.38157 -5.40023
1 8.74153 3.43531 -5.3871
1 8.70663 3.74989 -4.44363
1 8.68194 2.81025 -4.40804
1 7.84682 3.1502 -4.73619
1 7.70893 3.65064 -5.56968
1 7.23083 3.87649 2.19738
1 7.67874 3.77605 1.33779
1 7.83356 2.89886 1.64908
1 8.63464 3.31856 1.92577
1 9.50587 2.93679 2.02185
1 8.9764 2.34561 1.54732
1 8.30249 1.76719 1.94694
1 8.47743 2.42015 2.66178
1 8.18068 1.65313 3.20043
1 8.16482 0.717647 3.00159
1 -2.44462 4.13784 6.66312
1 -2.5822 3.29067 7.12056
1 -2.02798 3.04502 6.44993
1 -2.44628 2.23381 6.53025
1 -3.38144 2.54656 6.62482
1 -2.88413 3.09612 5.99084
1 -3.11706 3.98823 5.69119
1 -3.74856 4.47837 6.19818
1 -3.73749 3.48218 6.55654
1 -4.52742 3.50573 7.11286
1 -2.842 -2.88739 -5.83607
1 -1.95115 -3.06988 -6.14333
1 -1.07046 -3.52 -6.07254
1 -1.66114 -4.28835 -6.00851
1 -2.08037 -3.73752 -5.33305
1 -1.91576 -2.82341 -5.14028
1 -1.33305 -3.05102 -4.37129
1 -1.46219 -3.75 -3.70515
1 -1.48939 -4.42292 -4.38756
1 -0.97428 -3.85275 -4.9391
1 5.78584 -3.36975 -8.43328
1 6.30988 -4.09119 -8.69323
1 7.10054 -4.23319 -8.13379
1 7.00469 -4.87699 -8.79839
1 7.43595 -5.69306 -8.72047
1 7.6208 -6.62764 -8.93418
1 8.48187 -6.23655 -9.05738
1 8.93198 -5.61506 -9.67866
1 9.4654 -6.42625 -9.595
1 9.81461 -6.27771 10.2593
1 7.90954 -0.258076 5.9415
1 7.83007 -0.567813 5.0416
1 7.08423 -0.0191639 5.162
1 7.62967 0.77469 5.02078
1 7.1872 1.53773 4.70677
1 7.87715 2.02485 4.29739
1 8.32255 1.17404 4.36973
1 8.71528 0.312381 4.11558
1 8.3677 -0.528858 3.92128
1 8.60631 -1.11521 3.1687
1 4.69452 7.54658 -7.81972
1 4.35278 8.32522 -7.42952
1 4.61845 7.7322 -6.71154
1 4.80183 7.19619 -5.97765
1 4.54154 6.4427 -6.48146
1 3.9899 7.05673 -7.01159
1 4.12069 6.61007 -7.87282
1 3.5665 7.34229 -8.18963
1 3.52971 6.82403 -8.96775
1 2.89243 6.52612 -8.35886
1 -4.85095 -9.92534 -3.21655
1 -5.38934 9.99889 -3.14793
1 -4.60068 9.53581 -3.03859
1 -4.47046 9.80176 -3.89718
1 -3.92632 9.43052 -4.68671
1 -3.20516 8.78782 -4.75048
1 -3.00692 9.29294 -5.57791
1 -3.85344 9.62044 -5.84789
1 -4.14635 10.3188 -5.25444
1 -4.86504 9.72059 -5.55781
1 -3.44943 -7.55802 9.83281
1 -3.78851 -8.32934 10.2676
1 -3.9659 -8.33157 -9.5506
1 -3.39145 -7.68355 -9.1312
1 -4.03382 -7.04355 -8.91863
1 -3.50151 -6.32415 -9.33596
1 -2.61808 -5.94003 -9.06789
1 -2.93359 -5.48391 -9.82557
1 -1.98674 -5.51336 -10.0699
1 -1.47479 -6.15283 10.1002
1 8.05679 -4.11119 -7.52415
1 7.69616 -4.45718 -6.70037
1 7.32303 -5.08793 -6.13992
1 7.62286 -5.33489 -5.27927
1 8.0726 -5.55597 -4.47931
1 8.80438 -4.98623 -4.1627
1 9.0746 -5.88505 -4.35979
1 9.65987 -6.26242 -3.76265
1 9.62222 -6.03348 -2.77964
1 -10.2302 -6.05499 -2.50557
1 1.84716 -0.347774 -3.42251
1 1.3063 -1.01845 -3.81821
1 1.73064 -1.04506 -4.64796
1 1.69209 -0.108378 -4.48017
1 1.52006 -0.246751 -5.4307
1 0.609339 -0.492303 -5.04807
1 0.34119 -0.10138 -4.21396
1 -0.235177 0.204837 -4.84257
1 0.316758 0.371646 -5.62659
1 0.793667 -0.0914618 -6.37119
1 -2.26994 5.84058 2.68321
1 -1.36435 5.67538 2.87984
1 -1.00125 4.89499 3.19323
1 -0.243702 4.41573 3.31968
1 0.510206 5.09457 3.29649
1 0.67783 4.57353 4.00748
1 0.317833 4.74611 4.95355
1 0.112801 5.65952 5.26701
1 0.463281 5.64954 6.1712
1 -0.275134 6.12583 6.54323
1 2.74313 6.41335 0.197273
1 2.79092 6.24942 -0.744716
1 3.25706 6.88082 -1.44961
1 3.17631 7.73892 -1.80696
1 2.72739 8.60773 -1.63905
1 3.09963 8.37993 -0.705387
1 2.767 7.4742 -0.644862
1 3.55275 7.03725 -0.298981
1 4.16106 7.47956 -0.916913
1 4.41048 6.55314 -0.84986
1 3.02995 9.56629 6.11764
1 2.90377 9.45017 7.04909
1 3.68987 8.9718 7.40351
1 4.62233 8.79832 7.32763
1 5.00316 8.64283 6.39802
1 5.07654 7.64935 6.28824
1 5.60814 7.38459 5.5963
1 5.5464 6.72891 4.86971
1 4.75382 7.29819 4.67668
1 5.5173 7.89105 4.59033
1 -4.48671 7.7478 0.783864
1 -4.18726 7.09117 0.184159
1 -3.62062 6.32001 0.423137
1 -3.54122 5.38956 0.528131
1 -4.06757 5.30342 -0.252131
1 -4.89007 5.58085 -0.615511
1 -5.71069 5.1223 -0.761846
1 -6.63687 5.47187 -0.811805
1 -6.70281 6.40764 -0.624785
1 -5.93169 6.14367 -0.0423828
1 -0.827707 -9.7056 -4.17431
1 -1.12755 -10.2208 -4.99678
1 -0.877894 9.61497 -4.97367
1 -0.305841 9.94399 -4.30861
1 -0.680293 9.55777 -3.53375
1 -0.887119 8.79825 -4.19191
1 0.00270183 8.48877 -4.25155
1 0.0845879 8.73459 -5.1908
1 0.471379 9.28894 -4.49146
1 0.298513 9.40731 -3.61407
1 6.977 -0.924347 5.70744
1 7.59778 -1.61288 5.9725
1 8.43653 -1.16828 6.03639
1 8.35893 -0.694366 6.82172
1 8.26555 0.182266 7.23416
1 9.12857 -0.230922 7.40529
1 8.94268 -0.075505 8.31571
1 7.99715 -0.276233 8.2115
1 7.87747 0.62607 8.54202
1 7.19012 1.12374 8.85566
1 -9.32311 -6.59705 4.20899
1 -8.58792 -6.23979 3.76382
1 -7.71077 -6.26939 4.09189
1 -7.2623 -6.28933 4.99066
1 -7.05413 -5.5099 4.42805
1 -6.71959 -5.75715 3.5168
1 -7.01494 -5.93287 2.6009
1 -7.69902 -5.51083 3.13158
1 -7.9476 -6.3912 2.78005
1 -8.01757 -7.12595 3.42274
1 3.76979 10.2138 -6.71759
1 3.50295 -9.54775 -6.39577
1 3.28312 -9.43531 -5.45786
1 3.38905 -8.61972 -5.97709
1 3.81138 -7.69572 -5.85937
1 4.28564 -8.06356 -5.10699
1 3.66109 -8.54654 -4.57123
1 2.77132 -8.86158 -4.61132
1 3.44966 -9.37102 -4.05567
1 2.72176 -9.46553 -3.39173
1 -6.75561 1.68828 6.65142
1 -7.54341 2.19208 6.68418
1 -7.50139 3.01156 7.21323
1 -7.49773 3.67663 7.92184
1 -6.68695 3.36011 8.34035
1 -6.63071 2.93112 7.51736
1 -6.68405 3.50533 6.75341
1 -7.10664 4.2875 7.04756
1 -7.59863 3.84096 6.38537
1 -8.15444 3.10825 6.29138
1 9.61412 -4.94659 -3.38361
1 10.278 -4.36288 -3.14883
1 10.1412 -4.82419 -2.3153
1 10.272 -3.9195 -2.01918
1 -9.55451 -4.18604 -1.73839
1 -8.7742 -3.77638 -1.98152
1 -8.36975 -4.63655 -1.99829
1 -8.16391 -5.34993 -1.33822
1 -9.01136 -5.53032 -0.865528
1 -9.80038 -5.57265 -0.31933
1 -10.2103 -1.5195 2.52708
1 -10.1153 -0.816502 1.81064
1 -9.48942 -0.24862 1.4446
1 -9.66669 -0.752591 0.582641
1 10.2608 -0.36608 0.858093
1 -10.1615 0.503311 1.1304
1 -9.73927 0.99296 1.8423
1 -8.96927 1.14318 2.32735
1 -8.37255 0.382373 2.22905
1 -8.30323 -0.159571 3.04059
1 -7.6525 2.84056 0.139568
1 -7.64347 2.07555 0.711343
1 -7.42819 1.98532 1.63938
1 -6.8896 1.49007 2.28823
1 -6.19944 1.00302 2.68457
1 -5.74469 1.74346 2.2602
1 -6.43772 2.24174 1.84813
1 -6.00459 2.93843 2.41757
1 -5.09559 2.76056 2.15736
1 -4.77699 3.21461 1.33129
1 6.97129 1.87347 -4.53356
1 6.83415 1.15086 -3.95771
1 7.1301 1.29879 -3.0898
1 7.01404 2.16719 -3.50987
1 7.01459 2.91554 -4.05552
1 6.45732 3.63523 -3.85291
1 5.62659 3.58022 -4.31763
1 5.66919 4.44634 -3.81699
1 5.95832 5.3801 -4.12913
1 6.37366 5.0215 -3.33195
1 -5.74488 -10.106 -3.89643
1 -6.59192 -9.79185 -3.5358
1 -6.6212 -9.04964 -4.13423
1 -7.48637 -9.31426 -4.3922
1 -6.97138 -10.1657 -4.45806
1 -7.67606 10.2862 -5.10571
1 -8.16998 -9.65715 -5.40154
1 -8.53724 -9.70905 -6.27939
1 -7.61813 -10.0666 -6.50448
1 -7.14426 -9.51623 -7.11712
1 -0.341976 -5.02981 -8.14043
1 -0.332771 -5.87124 -8.6135
1 -0.303278 -6.8384 -8.3714
1 -0.343493 -6.99124 -9.33822
1 0.00457172 -6.06906 -9.61873
1 -0.440629 -5.57525 -10.3444
1 -1.13678 -5.09688 10.0418
1 -0.912865 -4.20431 9.81959
1 -0.930274 -4.32586 8.82245
1 -0.188928 -4.64985 9.35971
1 8.55002 -6.19691 4.9412
1 8.63639 -7.09159 5.25999
1 8.35637 -7.36177 6.16435
1 8.14921 -7.19047 7.12109
1 8.76221 -7.47078 7.85051
1 7.85876 -7.5197 8.16513
1 7.19836 -7.84432 8.77669
1 6.54332 -8.43479 9.14233
1 7.39527 -8.87088 8.92609
1 7.39977 -8.29158 9.74027
1 6.89755 6.97943 -8.91956
1 7.45909 6.72627 -8.18549
1 8.07823 6.74651 -8.97716
1 8.99713 7.04315 -9.05648
1 9.10005 6.38972 -8.38955
1 9.83919 6.44556 -8.94612
1 9.92628 7.17678 -8.3098
1 10.1128 7.50872 -9.22298
1 9.52284 7.8009 -9.96258
1 10.3379 8.26433 -10.194
1 -1.95949 -0.986491 8.31949
1 -2.14512 -1.50718 9.1001
1 -2.44282 -1.73137 9.99657
1 -2.1954 -1.95552 -9.85217
1 -2.81362 -1.21508 -9.84932
1 -3.48861 -0.579773 -9.88714
1 -3.43069 -0.986183 9.95655
1 -4.07662 -0.730634 9.259
1 -3.49807 0.0249926 9.4065
1 -2.77948 0.704112 9.44149
1 0.872412 -8.31201 -1.49221
1 0.520199 -7.7377 -0.781357
1 0.735423 -8.62919 -0.465796
1 1.5485 -8.94808 -0.823003
1 2.45173 -8.87504 -0.65678
1 2.22608 -9.82586 -0.473015
1 2.47637 -10.2782 0.333296
1 2.01266 9.64886 0.139311
1 2.84442 9.22552 0.343658
1 2.96895 9.04291 1.27321
1 9.16703 1.19446 -2.32588
1 9.01619 0.995543 -1.38115
1 9.50035 1.83351 -1.46888
1 8.7882 2.2274 -1.06992
1 8.25305 2.8152 -1.67207
1 7.47935 2.25747 -1.35881
1 7.76709 2.53687 -0.518481
1 7.99148 3.48748 -0.305919
1 8.34525 3.8163 0.528147
1 9.08538 4.31051 0.906924
1 -5.94566 7.03812 9.01308
1 -5.87362 7.58004 8.17406
1 -6.31049 6.94694 7.56291
1 -6.52486 6.34633 8.26332
1 -6.0505 6.04125 9.033
1 -6.14663 5.12665 9.18716
1 -6.79457 5.23814 8.42365
1 -6.21068 4.43878 8.31464
1 -6.01787 3.8956 7.55412
1 -5.13719 3.82278 7.94403
1 3.91182 -2.10023 -3.22484
1 2.97192 -2.18906 -3.0064
1 3.09757 -2.52292 -2.1484
1 2.73054 -3.35599 -1.80299
1 2.39091 -2.87729 -1.05475
1 2.30198 -3.24937 -0.180966
1 3.12175 -3.77916 -0.424535
1 3.43604 -4.44608 0.232869
1 3.46884 -4.39102 1.18611
1 3.32965 -4.47692 2.14096
1 -7.70423 1.08516 -9.5827
1 -7.41625 1.03481 -8.70765
1 -7.73636 0.82904 -7.79792
1 -6.77439 0.896943 -7.72374
1 -6.49672 0.072374 -7.24049
1 -5.97311 -0.449564 -6.69992
1 -5.37855 -0.881757 -7.31879
1 -4.80916 -0.810054 -6.58267
1 -4.28629 -0.345992 -5.94771
1 -3.9323 -1.14013 -5.57786
1 -5.27112 -8.21938 9.97504
1 -5.74096 -8.42119 -9.91373
1 -4.99157 -8.12517 -9.44916
1 -4.78437 -8.98341 -9.85172
1 -4.40934 -9.06993 9.99272
1 -4.4824 -8.6663 9.10545
1 -3.60746 -8.21137 9.06793
1 -4.25706 -7.65733 8.66646
1 -4.1877 -7.44656 7.75834
1 -4.85459 -7.33476 7.11286
1 3.9338 -5.85784 -8.40644
1 4.61122 -6.3089 -8.03851
1 5.47365 -6.56644 -7.7674
1 5.98452 -6.38054 -8.51498
1 5.25228 -5.77489 -8.69568
1 5.01114 -5.28437 -7.89096
1 5.4367 -4.93367 -7.12062
1 4.87629 -5.63594 -6.90117
1 5.38104 -5.33606 -6.13738
1 5.23941 -6.27806 -5.90403
1 -9.38116 -2.5998 -0.702587
1 -10.1624 -2.72059 -0.0641134
1 10.2644 -2.67677 -0.995346
1 -10.34 -3.63496 -1.10185
1 9.65558 -4.24573 -0.960507
1 9.1417 -3.58386 -1.53768
1 8.87903 -4.44861 -1.81614
1 9.33888 -4.16229 -2.59568
1 9.48779 -3.25742 -2.55098
1 8.8593 -2.59489 -2.85284
1 4.52123 -3.10861 4.17752
1 3.70209 -3.19225 3.61822
1 3.08464 -2.6207 4.06844
1 3.03345 -1.85145 3.57939
1 2.39772 -2.4271 3.22477
1 1.52076 -2.27202 2.78195
1 2.15484 -2.81993 2.21004
1 1.92654 -3.69408 2.01269
1 2.82823 -3.50389 1.71852
1 2.534 -4.04546 0.969443
1 -10.1606 1.1937 6.8894
1 -10.1669 0.960483 7.79407
1 -9.61298 0.57485 8.56425
1 -10.2509 1.2303 8.94665
1 9.82469 0.487645 8.87874
1 9.01034 0.938387 8.62873
1 9.03361 0.668942 9.53786
1 8.91238 1.4324 10.1674
1 8.41136 1.44301 -9.74775
1 9.347 1.57166 -9.70178
1 0.0151617 3.20495 -5.89558
1 -0.0345238 4.07484 -6.37726
1 0.171171 4.09915 -7.26383
1 0.965324 4.03021 -6.74383
1 1.04328 3.10068 -6.48368
1 0.933986 3.17938 -7.4482
1 1.55015 2.48306 -7.54001
1 1.21965 2.33244 -8.4223
1 0.924818 1.47036 -8.18601
1 1.81566 1.35227 -7.72968
1 -4.95997 -5.87992 10.183
1 -5.33043 -5.80257 -9.65264
1 -5.47522 -5.14316 -8.96702
1 -6.15727 -4.7544 -9.50097
1 -6.92611 -4.69663 -9.97595
1 -7.36307 -5.12967 10.0099
1 -6.50448 -5.56944 9.90625
1 -7.00919 -6.23246 10.3645
1 -7.81412 -6.08797 -9.7419
1 -8.19857 -5.75589 -8.92396
1 1.32653 6.61164 -1.95841
1 0.97779 6.80326 -1.15964
1 1.6668 7.27365 -0.749628
1 1.67609 6.39783 -0.34657
1 1.29767 6.58112 0.548283
1 0.423712 6.6378 0.159134
1 -0.438391 6.2564 0.356544
1 -0.813206 7.04633 -0.121972
1 -1.62482 6.60864 0.100554
1 -1.87903 6.77376 -0.836595
1 -5.87356 -6.56413 -8.7985
1 -5.27812 -6.62008 -8.0567
1 -4.86468 -7.00918 -7.29384
1 -4.04958 -7.15155 -7.89581
1 -3.07186 -7.07987 -8.19725
1 -2.20096 -6.69751 -8.19682
1 -2.86059 -5.94331 -8.14017
1 -3.17821 -5.54791 -7.29733
1 -3.02841 -5.73139 -6.32092
1 -2.11697 -6.04602 -6.29786
1 10.0958 9.27599 -10.3634
1 9.47069 9.77522 9.85631
1 8.62546 9.3066 9.64363
1 8.22231 9.95213 9.09984
1 8.31391 -10.3269 9.96375
1 8.66878 -10.257 -9.8401
1 8.74476 9.57993 -9.56192
1 9.3419 9.28792 -8.80806
1 9.9998 8.83548 -9.33449
1 -9.8674 8.42799 -9.35176
1 -1.22189 10.0467 -9.44311
1 -0.884884 9.38659 -8.84366
1 -0.399009 8.58613 -8.81691
1 -0.238891 8.27366 -7.88697
1 -0.307817 9.19442 -7.89709
1 -0.213552 8.87647 -7.00423
1 0.0155203 9.77252 -6.81599
1 0.791309 9.23627 -6.99452
1 1.68002 9.6771 -7.18876
1 1.04249 10.2979 -7.49587
1 8.24422 10.0187 5.71847
1 7.25145 9.85074 5.57453
1 7.45673 -10.2023 6.19745
1 7.88426 -9.56742 6.74439
1 7.69727 -10.3291 7.27118
1 7.74936 9.79701 7.98409
1 8.16122 9.04144 7.55693
1 8.39959 8.64 8.35574
1 9.24928 9.01301 8.06473
1 8.74918 9.83702 7.9486
1 2.06408 7.92802 8.30939
1 2.10811 7.78499 9.29212
1 2.40276 8.67962 9.18771
1 2.65144 9.60115 9.12295
1 2.87486 10.3568 9.6111
1 2.87459 9.67777 10.2331
1 3.73546 10.0703 -10.2853
1 3.47299 -9.74577 10.1206
1 2.57121 -9.58217 10.2076
1 1.67604 -9.6576 9.81573
1 9.90125 -4.58908 -7.42415
1 10.0874 -4.36115 -6.48206
1 -10.2408 -4.28566 -5.56608
1 -9.75128 -3.94816 -4.77086
1 -9.07799 -3.80271 -5.46044
1 -8.55198 -4.13459 -4.73327
1 -8.99937 -4.94231 -5.0118
1 -9.93058 -4.94583 -4.72719
1 -9.59045 -5.84761 -4.72832
1 -10.0886 -6.50401 -4.25185
1 -2.26877 -7.45689 1.22832
1 -2.14744 -8.12501 0.485055
1 -1.34226 -8.51486 0.234727
1 -0.881238 -9.19536 0.724489
1 -0.0922991 -8.8532 0.436137
1 0.543656 -8.16573 0.625958
1 -0.34697 -7.82002 0.759422
1 -1.25645 -7.59809 0.971573
1 -1.08603 -7.40347 1.88178
1 -0.634864 -6.73576 1.41992
1 -0.900271 4.20124 -0.884104
1 -1.38503 3.86499 -0.0732126
1 -1.2499 3.22931 -0.815906
1 -1.24951 2.78914 0.0331684
1 -1.9225 2.21264 0.361047
1 -2.86047 2.01869 0.0917798
1 -2.80501 2.79067 0.703126
1 -3.04149 3.01729 1.55267
1 -2.52166 3.79169 1.35599
1 -2.36679 4.73295 1.59532
1 7.00592 -9.95694 -9.58559
1 7.72125 10.052 -9.45146
1 7.50289 9.14103 -9.19528
1 7.26659 8.82407 -8.29139
1 6.42627 8.99961 -8.58936
1 5.76744 9.59877 -8.79254
1 5.18147 10.2788 -8.55478
1 4.74588 9.83336 -7.84927
1 4.1753 9.38322 -7.26665
1 4.61542 9.01977 -6.49274
1 -7.39537 3.39957 -5.78654
1 -7.37116 3.61655 -4.86223
1 -8.10978 3.98172 -4.36903
1 -8.66928 4.30045 -3.7276
1 -8.1525 5.15858 -3.87969
1 -8.82208 5.86398 -4.11608
1 -8.25996 6.25723 -4.77948
1 -7.32054 6.31222 -4.99974
1 -7.92119 6.40553 -5.80034
1 -7.94204 7.15698 -6.44585
1 -0.840315 -8.89982 -10.1861
1 -0.97405 -8.41067 9.793
1 -1.35476 -7.69087 9.37737
1 -2.19036 -7.21286 9.49706
1 -2.83172 -7.34281 8.84819
1 -3.52296 -6.68551 9.07353
1 -3.45393 -5.76451 9.34877
1 -3.02024 -5.66501 8.52191
1 -2.35904 -6.23032 8.9415
1 -2.31899 -5.67567 9.69194
1 -3.77162 9.75408 -6.98871
1 -3.79734 9.74502 -7.90987
1 -4.01356 8.84644 -7.781
1 -3.4354 8.70546 -8.50706
1 -2.79438 9.36165 -8.20251
1 -2.86634 8.78935 -7.43256
1 -3.47507 8.72881 -6.68649
1 -4.33952 8.42848 -6.80529
1 -5.00726 7.67122 -6.9266
1 -4.88296 8.15758 -7.74377
1 -2.37043 1.03616 -10.2755
1 -3.07441 0.37169 10.3551
1 -3.892 0.686088 10.0644
1 -4.19699 -0.172015 10.2683
1 -4.45783 -1.04477 -10.3088
1 -4.41794 -1.84131 9.81153
1 -3.96327 -2.71456 9.8908
1 -3.45212 -2.00568 10.2368
1 -3.42004 -1.93757 9.27389
1 -3.08017 -1.52532 8.4313
1 1.93973 0.864286 4.51883
1 1.08623 0.745866 4.80266
1 0.641562 1.58509 4.87894
1 1.21839 1.50537 4.08184
1 0.81391 1.62708 3.24708
1 1.67647 1.59992 2.91295
1 2.54553 1.98149 3.03132
1 2.37053 2.89646 3.03093
1 1.95712 3.26918 2.2269
1 2.9432 3.33117 2.24093
1 -6.39683 -9.91914 -1.05816
1 -6.38217 -8.97803 -1.26982
1 -6.63116 -8.47887 -0.507732
1 -6.43295 -7.5836 -0.588644
1 -7.18839 -6.96002 -0.630622
1 -7.60776 -7.88465 -0.760007
1 -8.15208 -7.17503 -1.10548
1 -8.06146 -7.88474 -1.76718
1 -8.63037 -7.55175 -2.47996
1 -9.04786 -8.26277 -1.99427
1 9.02525 -8.69491 -9.75384
1 9.60425 -9.48289 -9.70132
1 9.89287 -10.226 -10.2013
1 9.66724 10.0907 -9.40941
1 -10.1739 9.73419 -9.13431
1 10.0703 9.73448 -8.29678
1 9.44672 9.20289 -7.73749
1 9.77264 9.89557 -7.18227
1 9.98624 9.00579 -6.90496
1 9.01251 9.00366 -6.87396
1 -1.7125 3.32029 0.836987
1 -1.8587 2.54719 1.49302
1 -2.46691 1.92174 1.15343
1 -2.10059 1.52187 1.95019
1 -2.711 0.747362 1.98956
1 -2.58784 0.069903 1.31796
1 -3.2489 -0.361484 0.688563
1 -2.83114 -1.12354 0.272393
1 -2.57004 -0.484533 -0.456584
1 -2.57975 0.471982 -0.788313
1 7.79608 -5.07678 -7.97311
1 8.34026 -5.85404 -8.02338
1 7.7187 -6.55749 -7.85798
1 6.81741 -6.90211 -8.07397
1 6.26941 -7.60504 -7.81507
1 5.6561 -7.54566 -8.5765
1 6.20804 -8.04917 -9.14092
1 6.13082 -8.48727 -8.30383
1 5.29801 -8.46775 -7.8471
1 5.12521 -7.56489 -7.57128
1 7.33752 1.11711 7.49261
1 7.53677 1.82007 8.12545
1 8.2915 1.30655 7.93477
1 8.51253 2.23055 7.96339
1 9.20632 2.68062 8.45478
1 9.72961 2.80887 7.69534
1 9.85744 1.9358 8.12497
1 9.456 1.89994 7.18576
1 8.87869 2.60816 6.83326
1 9.47841 3.34975 6.8083
1 -7.23586 -1.29724 5.39673
1 -6.57466 -0.6594 5.79757
1 -7.11734 -1.07297 6.54454
1 -7.96953 -0.852294 6.99118
1 -7.97324 -0.840111 8.01797
1 -8.34244 -1.6183 7.59348
1 -9.06332 -1.23038 8.01437
1 -9.41507 -2.09016 8.19258
1 -8.56655 -1.98972 8.6475
1 -8.58729 -2.66756 8.03051
1 -5.32961 8.28031 9.5549
1 -5.93484 7.74884 10.0081
1 -6.56005 7.54629 -9.99176
1 -6.51182 7.87855 -9.08991
1 -5.90604 7.13891 -9.05824
1 -5.22444 7.18237 -9.73423
1 -4.947 6.27738 -9.88221
1 -4.26726 6.86105 -10.2381
1 -4.23023 6.95876 -9.3266
1 -4.08164 6.84348 -8.34429
1 2.03025 4.2453 -3.99875
1 2.13872 3.32908 -3.63043
1 2.83292 3.17999 -3.06883
1 2.17773 3.15048 -2.36747
1 1.89383 3.93202 -1.94986
1 1.09675 4.27275 -2.40878
1 0.625207 4.7166 -3.10387
1 0.946198 4.42008 -3.96003
1 0.190049 4.23425 -4.46929
1 -0.4279 4.8334 -4.04676
1 10.3097 -4.89506 2.63128
1 9.41809 -5.17189 2.87706
1 8.82222 -5.635 3.46486
1 8.39059 -5.51928 2.58012
1 8.11147 -6.13217 1.92818
1 8.06685 -5.51299 1.14914
1 7.3501 -5.46632 1.80301
1 7.52952 -4.90883 2.58536
1 7.68369 -5.26556 3.46688
1 7.74441 -4.89525 4.36258
1 -6.04374 -9.29766 0.0117742
1 -5.45658 -9.05784 0.668687
1 -5.32129 -9.59077 1.42394
1 -5.21671 -8.70005 1.74409
1 -4.6908 -9.30914 2.2563
1 -4.69135 -10.1005 2.82623
1 -5.06078 -9.44207 3.44964
1 -6.05302 -9.37234 3.49262
1 -5.69991 -9.93098 4.14587
1 -5.80778 -10.2857 5.06737
1 10.2836 7.04359 -2.74836
1 -10.1038 7.90089 -2.83734
1 -10.088 7.92988 -3.77324
1 9.88682 8.59777 -3.99325
1 9.42087 9.44391 -3.80837
1 8.84865 8.66399 -3.66508
1 8.34369 8.53855 -2.87506
1 8.16528 8.29188 -1.94027
1 8.39674 9.15726 -1.56388
1 9.3027 8.99547 -1.89383
1 -3.62775 -3.76974 8.28193
1 -3.36983 -4.66793 8.18301
1 -3.90583 -4.88998 8.88591
1 -4.48016 -5.45244 9.35453
1 -3.9071 -5.02001 9.99195
1 -3.69246 -4.1181 9.88614
1 -2.94566 -4.57717 10.2646
1 -2.50777 -3.81656 9.95882
1 -1.8735 -4.47521 10.2512
1 -2.0749 -4.49209 -9.48372
1 -1.92772 -0.522446 6.86983
1 -1.29888 -1.01955 6.32058
1 -2.17376 -1.34932 5.94008
1 -1.94626 -1.89071 6.6719
1 -2.20973 -1.95127 7.58034
1 -2.19293 -2.91831 7.87057
1 -2.40437 -2.8669 6.8969
1 -1.5532 -3.3749 7.18614
1 -0.93684 -2.59403 7.12018
1 -1.26228 -2.51703 6.23418
1 -5.9954 -9.01395 2.31585
1 -6.96729 -9.19828 2.43151
1 -7.76135 -8.72591 2.52815
1 -8.76205 -8.92649 2.47075
1 -8.73707 -7.99981 2.71862
1 -9.4885 -7.71535 2.16566
1 -10.3483 -7.81889 2.62409
1 -9.74079 -8.45632 3.02575
1 -9.77195 -8.85782 2.11218
1 10.3391 -8.34593 1.62839
1 -10.2529 -3.50285 -7.06937
1 9.68115 -3.27039 -6.62209
1 9.01603 -3.79433 -7.07243
1 8.64056 -2.94806 -7.30497
1 8.03462 -2.94424 -8.04021
1 8.26631 -2.05736 -7.64248
1 9.00255 -1.73805 -7.01049
1 8.27568 -1.41869 -6.37487
1 8.2929 -2.41146 -6.39707
1 8.38576 -3.34314 -6.34012
1 3.74871 -6.98682 -7.89943
1 3.65652 -7.83236 -8.31256
1 2.80572 -8.3149 -8.49754
1 2.64471 -7.4132 -8.71201
1 3.4037 -6.81438 -8.8491
1 3.20409 -6.38717 -9.65578
1 3.57259 -5.58579 -9.39244
1 4.49358 -5.20393 -9.19519
1 4.69198 -6.0208 -9.64948
1 4.7767 -5.87772 10.1168
1 3.93178 -9.41859 4.67849
1 3.33396 -10.1133 4.41012
1 3.56424 9.98642 3.71825
1 3.25605 -9.85378 3.3981
1 3.66655 10.3439 2.73061
1 3.87218 9.41804 2.90579
1 4.55415 9.24929 2.28017
1 3.87214 9.19871 1.7094
1 4.37638 8.43364 1.5179
1 4.7008 8.72367 0.626522
1 6.57486 2.9655 -2.94893
1 6.62133 2.30224 -2.3111
1 7.06469 3.08683 -1.98012
1 7.47222 3.55963 -1.28511
1 6.51737 3.7091 -1.0831
1 6.69161 2.77724 -0.908771
1 5.85351 2.72644 -1.33571
1 5.54666 3.59484 -1.20553
1 5.97421 3.49128 -2.07295
1 5.80808 4.42765 -1.87757
1 -6.10206 8.89346 3.96392
1 -6.39057 9.84242 4.04454
1 -5.44807 9.8254 4.21209
1 -4.70302 10.3615 3.89769
1 -4.84526 9.66793 3.16461
1 -3.92071 9.65707 3.34799
1 -3.43132 8.79649 3.44583
1 -2.84936 7.99683 3.28755
1 -2.10044 7.31906 3.12644
1 -2.02657 7.53146 2.18838
1 -4.58625 -2.57809 3.20923
1 -3.88204 -2.6336 3.87197
1 -3.12335 -2.11846 3.96357
1 -2.60484 -1.57266 3.39047
1 -2.27477 -0.863666 3.87405
1 -3.26763 -0.827227 3.84786
1 -2.88705 -1.06512 4.71598
1 -2.18201 -1.7439 4.74578
1 -2.10049 -2.31789 3.94723
1 -1.78398 -2.32214 3.05275
1 -6.91691 -4.85129 5.28418
1 -6.08535 -4.82641 4.84289
1 -5.38245 -4.2553 4.50343
1 -4.99219 -4.90868 3.88854
1 -4.33468 -5.56488 3.58774
1 -5.0388 -6.0378 4.0406
1 -4.62516 -5.71115 4.86755
1 -4.41862 -6.48068 5.34852
1 -4.29892 -6.15699 6.22018
1 -3.55331 -5.52238 6.40003
1 6.21442 -7.12798 -4.7233
1 6.04919 -7.18867 -3.80282
1 6.43871 -7.02062 -2.98576
1 6.00786 -7.8539 -2.86579
1 6.50906 -8.4908 -2.2799
1 6.65549 -9.39803 -1.89264
1 7.1268 -10.2619 -1.8627
1 7.6004 -9.66867 -2.41844
1 8.4411 -9.64378 -2.79011
1 9.06283 -9.7189 -2.05952
1 -9.82434 0.285291 -3.32311
1 10.1787 -0.226243 -3.16243
1 9.23365 -0.232246 -3.47745
1 9.31034 -1.04268 -2.99635
1 8.60649 -1.41076 -2.44989
1 8.74397 -1.42223 -1.49817
1 8.94315 -0.633234 -1.01131
1 8.10481 -1.08502 -0.624011
1 7.15322 -0.93602 -0.806018
1 6.37561 -1.50848 -1.05643
1 7.04838 4.64112 -1.29382
1 7.59553 5.42707 -1.45774
1 6.7457 5.89215 -1.43841
1 7.40578 6.48457 -1.0943
1 7.33443 7.30208 -0.654323
1 7.6295 6.58589 -0.0959387
1 8.58271 6.76816 0.0715183
1 8.55739 6.10138 -0.652891
1 8.35305 5.16016 -0.616435
1 8.09037 4.35268 -1.13544
1 4.94895 -3.04643 6.52239
1 5.42439 -3.68514 5.82279
1 5.43361 -4.58499 6.05346
1 6.33198 -4.67227 5.6587
1 6.91164 -3.93095 5.88154
1 6.22684 -3.53913 6.47834
1 6.09205 -4.38555 6.85969
1 7.01454 -4.19833 6.97181
1 6.88449 -5.02504 7.46267
1 6.12351 -5.39286 7.02351
1 -6.26647 0.829001 -8.59768
1 -6.68253 1.78426 -8.44455
1 -6.35049 2.0184 -9.35175
1 -5.59461 2.55286 -9.55967
1 -5.45241 1.69377 -9.94245
1 -4.65967 1.79518 10.2701
1 -4.90386 2.72158 10.0072
1 -4.90061 2.81882 9.0761
1 -4.08393 3.19559 8.80957
1 -3.31997 3.58084 9.1222
1 3.96789 -6.86121 8.32603
1 3.81072 -5.96027 8.48268
1 3.10877 -5.77616 9.15649
1 3.28907 -4.83908 9.36628
1 3.00429 -4.6556 10.2908
1 3.43895 -5.60967 10.1396
1 3.83316 -6.37917 9.6719
1 4.37841 -7.10105 9.35249
1 4.64556 -6.23561 8.91819
1 4.29217 -5.39408 9.20372
1 4.476 9.27157 -3.4602
1 4.66704 9.18707 -2.49837
1 4.96098 10.1245 -2.54518
1 5.04329 9.76427 -1.63422
1 5.83285 9.94132 -1.13224
1 6.06415 10.3016 -1.96345
1 5.66163 -9.56606 -2.10154
1 5.89036 -9.37613 -1.20866
1 5.17467 -10.0147 -0.953501
1 4.70251 -9.95404 -1.78029
1 5.24756 -0.0162832 10.2684
1 4.97534 -0.372347 9.4648
1 5.87794 -0.0564026 9.37211
1 6.62488 0.187418 8.84344
1 7.05488 -0.6804 8.77746
1 6.84254 -1.06541 7.92668
1 7.03548 -0.0844633 7.85928
1 6.90574 -0.534536 7.004
1 6.30425 0.227894 7.00943
1 5.54764 0.45335 6.44929
1 3.47461 -2.52047 -5.90545
1 3.57577 -3.25358 -5.34075
1 4.24303 -3.96857 -5.65684
1 4.44979 -4.08035 -6.53458
1 5.24458 -4.14903 -5.99533
1 5.69111 -3.65668 -6.73844
1 5.30361 -3.09995 -6.08127
1 5.46722 -2.34264 -5.44801
1 5.06537 -2.0127 -6.29408
1 5.37679 -2.66654 -6.9716
1 -0.516453 -1.78388 6.29257