8000
Atoms. Timestep: 3300000
1 7.32406 -8.54169 -7.77651
1 8.22371 -8.87658 -7.74084
1 8.50927 -8.09305 -8.22923
1 8.49578 -7.10561 -8.50308
1 8.39878 -6.53795 -9.26338
1 9.32105 -6.23781 -9.52389
1 10.0096 -6.84175 -9.56544
1 9.43394 -7.29887 -9.01685
1 8.98094 -7.28257 -9.81827
1 8.75497 -8.12095 -9.3712
1 3.38014 0.836399 7.71345
1 2.62816 0.690472 8.3501
1 2.17067 1.09641 9.0778
1 1.88849 2.01353 9.04213
1 2.19167 2.88678 9.43882
1 1.28121 2.99427 9.25543
1 1.37111 2.44643 10.0035
1 0.413153 2.38454 10.1693
1 -0.304088 2.93832 10.4317
1 0.375594 3.44038 9.84622
1 -4.91997 10.6673 -2.40992
1 -5.61179 10.1841 -2.81236
1 -6.46116 10.4386 -2.52898
1 -6.82742 10.3451 -3.45227
1 -6.00302 10.2369 -3.93518
1 -6.26882 -10.4739 -4.46233
1 -6.00785 -10.2344 -3.55772
1 -5.07048 -10.6044 -3.62983
1 -5.20064 -9.72919 -3.3337
1 -5.42007 -9.1294 -4.04612
1 -0.135962 -8.8269 3.1895
1 -1.0376 -9.01659 2.9228
1 -1.22959 -8.31941 2.28697
1 -1.28437 -8.61436 1.46155
1 -1.47145 -9.55374 1.21358
1 -1.54981 -9.50604 2.14337
1 -2.01763 -9.15011 2.95665
1 -2.54373 -9.51784 3.6478
1 -2.09796 -9.89678 4.42239
1 -2.4685 -9.09874 4.73052
1 -0.0240267 1.008 5.73854
1 -0.868412 1.28518 5.64245
1 -0.910689 2.02112 4.92214
1 -1.45847 1.43492 4.2929
1 -0.891419 0.758162 4.7712
1 -0.0742751 1.27137 4.75767
1 -0.452774 1.12865 3.95399
1 0.429984 1.49382 3.95715
1 0.978049 1.69488 4.74025
1 0.928089 0.938914 5.31689
1 -4.04287 10.2675 -2.8442
1 -3.43988 10.2496 -3.5762
1 -2.71422 -10.6563 -3.80521
1 -1.78243 -10.5839 -3.70819
1 -0.856084 -10.4656 -3.97318
1 -1.08611 -10.0803 -4.77305
1 -0.605674 -10.5818 -5.41482
1 -0.850883 10.0249 -4.94599
1 -1.63494 10.1062 -5.49076
1 -2.02828 10.3583 -4.66943
1 4.99421 -1.60927 7.75997
1 4.72262 -1.5325 8.67326
1 4.32182 -0.757723 8.03362
1 4.12526 0.0386569 7.51539
1 5.04259 -0.273762 7.36887
1 4.49705 -0.621376 6.68279
1 3.96681 -0.329034 5.96178
1 4.50164 -0.117259 5.16306
1 4.9727 -0.231953 4.37808
1 5.93474 -0.0201951 4.42609
1 9.74141 -8.31714 10.5669
1 8.82631 -8.10899 -10.4559
1 8.4176 -8.69308 10.3782
1 7.85489 -7.89275 10.3168
1 7.34313 -7.81379 9.51279
1 7.14414 -7.52129 8.67255
1 7.19463 -8.48582 8.35866
1 6.47781 -8.69384 8.93307
1 6.13286 -7.78189 9.00192
1 5.31144 -8.37809 9.28995
1 2.16238 8.37583 -2.44317
1 1.50055 9.05578 -2.6505
1 1.20083 8.53052 -3.30825
1 0.723407 8.30333 -2.5575
1 1.43766 7.70507 -2.45902
1 0.983749 7.87765 -1.63925
1 0.0831655 7.71491 -1.96656
1 -0.231491 8.62834 -2.24079
1 -0.887658 8.00739 -2.40742
1 -0.892065 7.88652 -1.45378
1 -10.1287 -8.56 0.559136
1 -10.0977 -9.48895 0.847843
1 -9.89775 -10.3144 0.448937
1 -10.3051 -10.4173 1.3911
1 10.428 -9.79992 1.3166
1 10.3467 -10.3475 0.596752
1 9.65728 -10.4456 -0.0594076
1 9.25076 10.1962 -0.328002
1 8.80777 9.75616 -1.08658
1 7.82904 9.94317 -1.10707
1 0.93935 -9.23011 -6.54184
1 1.05025 -10.1994 -6.51406
1 1.81977 -9.96198 -5.99477
1 1.91288 -9.97274 -6.96862
1 2.04696 -10.1875 -7.96148
1 2.17812 10.59 -8.70582
1 2.75231 10.0189 -9.32213
1 2.59979 9.55127 -8.48364
1 2.5124 8.64377 -8.8092
1 2.15879 8.39268 -7.92511
1 2.47225 10.0439 3.69213
1 3.33032 9.57242 3.5234
1 4.23238 9.62892 4.03054
1 4.75789 10.4014 3.87509
1 4.15701 10.225 3.10344
1 4.63075 -10.3418 2.97305
1 4.74713 -9.51064 3.34608
1 3.92869 -9.90395 3.70816
1 3.00076 -10.1994 3.46119
1 2.86076 -9.23221 3.56339
1 8.01617 0.287152 7.53082
1 8.68097 0.949402 7.75295
1 9.55765 0.591762 7.44235
1 10.1046 -0.255547 7.30924
1 10.5446 0.26228 6.59611
1 10.0003 -0.0336558 5.82017
1 9.28561 -0.674541 5.73045
1 9.68457 -0.971974 6.59364
1 9.44456 -1.70905 5.96345
1 10.0505 -2.45828 6.0669
1 -6.99865 9.35518 7.37299
1 -7.65154 8.69954 7.38991
1 -7.67162 8.1191 8.1532
1 -8.2809 7.92521 7.49817
1 -8.8627 7.50372 6.82959
1 -8.52948 8.17229 6.18213
1 -8.7924 8.75034 6.99603
1 -8.04051 9.20569 6.5837
1 -7.3528 8.7376 6.05193
1 -6.65603 8.48055 6.68619
1 -3.55993 -6.83775 -2.53882
1 -3.5028 -6.54032 -3.42235
1 -3.97975 -7.18779 -3.92295
1 -4.90872 -7.17606 -4.20049
1 -5.65124 -7.15345 -3.55241
1 -4.8144 -7.43173 -3.20329
1 -4.44272 -6.61077 -3.04544
1 -5.17584 -6.30658 -2.46579
1 -4.83335 -7.0658 -2.08105
1 -5.53694 -6.69465 -1.59112
1 1.14055 10.0398 -2.72512
1 1.21506 10.5071 -1.89126
1 0.854175 9.7905 -1.29681
1 0.442858 9.72045 -0.459687
1 -0.227694 10.4323 -0.515373
1 0.0753121 -10.0788 -0.475177
1 0.534711 -9.29501 -0.897079
1 0.752854 -8.3802 -1.02679
1 -0.0118873 -8.35978 -0.403084
1 -0.56484 -8.17373 0.347544
1 -1.04644 5.59833 4.02675
1 -1.32242 6.37596 3.60788
1 -1.77396 7.22253 3.52014
1 -2.67504 6.88784 3.36007
1 -2.06418 6.29693 2.88428
1 -1.64479 6.44177 1.9982
1 -0.948904 6.8621 1.33532
1 -0.254842 6.32045 1.03147
1 -0.133142 5.96362 0.135783
1 -0.872352 6.6279 0.208459
1 -5.02451 -9.63617 9.47308
1 -5.2063 -10.5089 9.57439
1 -6.08688 -10.1357 9.35323
1 -6.7574 10.7098 9.28506
1 -6.58238 9.85244 9.69245
1 -5.72075 9.81676 9.22181
1 -5.55587 8.89574 8.81312
1 -6.30802 8.31143 8.89837
1 -6.77419 7.54363 8.53653
1 -6.43609 7.39993 9.41374
1 9.24904 9.05733 -3.70941
1 8.78466 8.99742 -4.59838
1 8.19486 8.97846 -3.82978
1 7.73301 8.30689 -4.4407
1 7.25196 8.03875 -3.72061
1 6.30688 8.03015 -3.61826
1 6.68098 8.70893 -4.19808
1 6.22835 7.97156 -4.71124
1 5.75899 8.80439 -4.73719
1 6.41119 9.46681 -4.97481
1 -7.50047 9.69859 8.94189
1 -8.01751 9.05986 9.41973
1 -7.35135 8.44335 9.16562
1 -8.07611 8.02367 9.52727
1 -8.87028 7.77616 9.95461
1 -8.47874 7.27196 10.6655
1 -9.34568 6.93475 10.2546
1 -10.2238 6.8493 9.7881
1 -10.0636 6.17501 10.485
1 10.5116 6.61754 10.617
1 -2.30002 3.99601 -7.36505
1 -3.08354 3.92115 -6.65123
1 -3.66329 3.3014 -6.17229
1 -4.13086 4.11044 -6.14937
1 -4.36617 4.36111 -5.27213
1 -4.67086 4.99487 -5.90409
1 -4.29265 5.87548 -6.07053
1 -3.88558 6.57301 -6.61416
1 -4.0226 7.40234 -7.14352
1 -3.44185 7.55739 -6.37283
1 7.55803 6.77499 -8.55063
1 8.16108 6.08374 -8.94346
1 8.88114 6.21276 -9.54267
1 8.78518 7.18296 -9.56904
1 9.09334 7.99954 -9.88401
1 9.62106 7.67443 -9.17172
1 9.80894 7.24771 -9.96128
1 10.686 6.92779 -9.70926
1 -10.0855 7.0798 -10.3234
1 -10.3956 7.96202 -10.1096
1 -2.83049 2.81502 -0.775652
1 -2.31002 2.09485 -1.05435
1 -1.66235 2.30023 -1.78312
1 -2.04478 3.10032 -1.58702
1 -2.65819 2.45964 -2.03955
1 -3.44645 1.96954 -2.27227
1 -3.01507 1.47859 -2.90279
1 -3.90728 1.73563 -3.10191
1 -4.35998 2.67713 -2.94229
1 -4.56431 3.62168 -2.65328
1 7.63969 4.41035 5.98873
1 8.31772 4.76827 5.38956
1 7.75546 4.66222 4.59313
1 7.22286 5.22382 5.13694
1 7.753 5.81679 5.65791
1 7.43768 6.64613 5.52044
1 6.89588 7.40392 5.59844
1 7.40769 8.16111 5.8506
1 8.26086 8.4479 6.09894
1 8.09481 9.17486 6.59914
1 2.28354 -2.81619 -8.7172
1 3.24616 -2.82314 -8.83853
1 4.05054 -2.3196 -9.0041
1 3.44112 -1.56272 -9.17333
1 3.06066 -1.92684 -8.41195
1 3.72783 -1.16023 -8.15106
1 2.9202 -0.711729 -8.37514
1 2.01802 -1.07668 -8.18528
1 1.80885 -2.02618 -7.93026
1 1.45062 -1.27826 -7.34536
1 6.75305 6.72929 10.0736
1 5.87575 7.05341 10.2898
1 5.75722 6.31564 -10.5003
1 4.95162 5.98922 -10.1265
1 5.41108 6.28103 -9.16646
1 5.05884 6.74112 -8.45961
1 4.99071 5.77265 -8.26045
1 5.27153 5.07727 -8.87445
1 5.33124 4.54299 -8.05249
1 6.20413 4.68983 -7.83346
1 -10.4774 -0.0744926 -0.24188
1 -10.1011 -0.299931 0.582714
1 -9.44957 -0.258565 -0.166848
1 -9.13678 -0.710018 -0.911962
1 -9.52967 -0.827362 -1.76842
1 -10.2171 -0.547778 -2.50498
1 -9.73229 -0.0323396 -3.18081
1 -10.1388 0.705519 -2.56655
1 10.4962 0.324411 -2.8275
1 9.71309 -0.235927 -2.62667
1 -5.34166 3.1391 10.3933
1 -6.20257 3.33233 10.0684
1 -6.63781 3.99275 9.48375
1 -7.27313 3.39236 9.87483
1 -7.75391 2.79993 10.4437
1 -6.82255 2.52284 10.288
1 -7.57176 1.94509 9.97859
1 -8.42369 1.75608 10.34
1 -8.56835 1.91836 -10.1736
1 -9.28042 1.28231 -9.95523
1 -5.4954 -4.54572 -2.83341
1 -5.23979 -5.16208 -2.13432
1 -4.52408 -5.10305 -1.44721
1 -4.78892 -5.5154 -0.63071
1 -5.49824 -5.78029 -1.21045
1 -6.27984 -5.35157 -1.61044
1 -6.38949 -6.27443 -2.0388
1 -6.2181 -7.00077 -2.6032
1 -6.62758 -6.67687 -3.43617
1 -5.89361 -6.03465 -3.43039
1 -3.86724 -8.54863 0.0150087
1 -3.85566 -9.54105 -0.176937
1 -3.08745 -10.143 -0.183872
1 -3.12755 -10.7099 0.63467
1 -2.72576 -9.90244 0.865295
1 -2.10212 -10.4197 1.46853
1 -1.8355 10.3314 2.04016
1 -1.41404 9.9738 1.22397
1 -1.25047 9.51099 2.06556
1 -1.14594 8.78196 2.71229
1 6.57114 9.34043 -6.9786
1 7.50003 9.08017 -7.06648
1 7.08556 8.60388 -7.82018
1 7.2844 8.00909 -8.56095
1 7.16623 8.58437 -9.26968
1 6.46642 9.21205 -9.09295
1 6.14846 10.143 -8.92917
1 5.57172 9.81317 -9.63988
1 6.12874 9.12757 -10.0567
1 6.23197 9.98469 -10.5272
1 1.99621 10.1025 5.08179
1 2.85794 9.70887 5.26583
1 3.32133 9.9246 4.44818
1 2.87048 -10.7065 4.44867
1 2.94857 -9.79372 4.70954
1 3.31364 -9.37989 5.60944
1 4.13301 -9.87089 5.41315
1 4.16472 -10.7128 4.78366
1 4.67952 9.97156 5.0332
1 5.26655 9.37873 4.5373
1 4.00056 -10.231 0.629062
1 3.70149 10.5235 -0.0996002
1 4.36837 9.98191 0.440922
1 4.64029 -10.7001 0.0119819
1 5.51669 10.497 -0.408826
1 5.52934 9.58938 -0.282458
1 6.41339 9.25973 -0.323534
1 6.38556 8.51262 0.332656
1 6.91802 9.05727 0.935686
1 7.50894 8.9888 0.121423
1 -5.32374 7.66434 -10.2983
1 -5.52585 7.96759 10.2577
1 -5.37481 7.66197 9.36809
1 -4.79192 7.29374 8.7229
1 -4.72279 6.66494 9.48181
1 -5.17312 6.36588 8.68634
1 -4.24255 6.41949 8.38177
1 -3.3494 6.81249 8.15298
1 -3.84625 7.57121 8.3806
1 -3.72158 7.22963 9.25519
1 -6.66262 4.76392 -10.3018
1 -6.08236 4.4714 10.2986
1 -5.23075 4.22684 9.95655
1 -4.38857 4.79922 10.0875
1 -4.50226 5.52275 9.44865
1 -4.79149 5.40524 8.57174
1 -5.23719 4.64053 8.88964
1 -4.87642 3.78263 8.6448
1 -4.24675 4.21189 9.2777
1 -3.73993 3.5811 8.71965
1 -2.01011 -6.07489 -6.89371
1 -2.21639 -5.8895 -7.78771
1 -2.79971 -5.28577 -8.26595
1 -3.39585 -6.00983 -8.48587
1 -3.28268 -5.69787 -9.39143
1 -3.21527 -4.69489 -9.40447
1 -3.41871 -3.85864 -9.0949
1 -3.16225 -3.70601 -9.93952
1 -3.82205 -4.46587 -10.2798
1 -3.01275 -5.0359 -10.5388
1 3.61968 9.68166 -7.06716
1 3.07367 9.59271 -6.23004
1 2.51753 10.1385 -5.60936
1 2.22041 10.14 -6.49802
1 1.84857 10.4347 -7.38277
1 2.66967 9.98001 -7.45221
1 2.85029 -10.4254 -7.24512
1 3.33524 -10.5751 -8.10349
1 3.98515 -9.85056 -8.34452
1 3.53947 -10.1815 -9.07812
1 5.68959 5.14904 -6.82458
1 5.22055 4.34263 -6.77329
1 6.02191 3.88879 -7.17568
1 5.68292 3.17739 -7.73307
1 6.29476 3.71577 -8.17479
1 6.9906 4.31042 -8.39979
1 6.50664 4.96362 -8.91866
1 5.95409 4.20092 -9.09734
1 6.63768 4.33787 -9.77305
1 7.4925 3.9626 -9.69946
1 6.13545 -7.52628 -9.15552
1 5.15144 -7.38729 -9.14904
1 5.40512 -8.32327 -9.08247
1 4.89003 -8.78077 -8.43321
1 4.3612 -8.80964 -7.62966
1 3.69245 -8.2488 -8.11907
1 3.40834 -8.90767 -8.70179
1 3.10887 -8.19494 -9.2562
1 3.86642 -8.62268 -9.76931
1 4.29151 -8.02246 -9.11723
1 0.542139 -0.484521 -6.21532
1 0.658238 -1.33125 -5.80092
1 1.20694 -0.643024 -5.44191
1 1.34814 0.287752 -5.85042
1 1.57245 -0.333559 -6.56112
1 2.00861 -1.12965 -6.36654
1 2.62775 -0.448349 -6.03442
1 3.54151 -0.243836 -6.31945
1 3.90795 -0.5323 -5.36125
1 3.15075 -0.000494893 -5.31167
1 -10.5049 -4.82827 -8.37046
1 -10.4663 -3.89779 -8.53054
1 -9.49491 -4.13122 -8.45638
1 -9.6505 -3.33732 -7.90747
1 -9.97726 -4.11205 -7.43757
1 -10.4036 -4.85735 -7.03852
1 -10.6927 -5.71347 -7.13851
1 9.91809 -6.13463 -7.25164
1 9.71027 -6.6777 -8.00492
1 9.13089 -6.23764 -8.57471
1 8.40257 -6.7548 -1.23846
1 8.95048 -6.88488 -1.95079
1 9.04395 -7.73023 -1.45806
1 9.5376 -7.59638 -0.675136
1 9.52322 -6.6437 -1.11908
1 8.89674 -5.93937 -1.05835
1 7.9716 -5.80577 -1.31323
1 8.55668 -5.8848 -2.12767
1 8.20469 -5.78888 -2.98982
1 8.70758 -5.36547 -3.71709
1 7.97751 -3.28864 -4.25248
1 8.07682 -4.25685 -4.14559
1 7.7974 -4.87453 -3.51224
1 6.92809 -5.24091 -3.3805
1 7.2683 -5.18116 -2.48384
1 6.66967 -4.42667 -2.68934
1 5.72263 -4.73382 -2.71293
1 5.88175 -3.92552 -2.20276
1 6.34523 -3.64518 -1.38485
1 5.74967 -3.65861 -0.692347
1 -7.37147 -9.00308 8.28274
1 -7.29608 -8.76841 7.39449
1 -6.80675 -8.76171 6.58926
1 -6.38455 -9.32856 7.2366
1 -5.44376 -9.19576 7.12825
1 -4.8895 -8.83361 6.45299
1 -5.52112 -8.11518 6.49286
1 -6.10372 -8.50665 5.86098
1 -6.47499 -7.66832 6.25229
1 -6.40085 -6.88486 6.78089
1 -5.55498 -5.55017 0.743235
1 -4.67261 -5.6822 0.533672
1 -4.25494 -5.89604 1.35403
1 -3.71663 -6.31146 2.076
1 -3.50249 -5.38211 2.10682
1 -4.3652 -5.00407 2.42381
1 -4.57306 -4.29187 3.0394
1 -4.6426 -4.39206 3.99221
1 -5.25649 -4.80565 4.52577
1 -5.11181 -5.54467 3.87275
1 8.10202 10.5793 -2.99237
1 7.3851 10.1741 -2.50903
1 6.87041 10.5657 -3.18976
1 6.07468 10.1301 -3.51798
1 6.77389 10.3109 -4.20045
1 7.53215 9.91493 -3.86514
1 7.3643 9.38882 -4.60426
1 7.65522 10.2206 -5.02746
1 7.07864 10.325 -5.83922
1 6.81099 -10.5223 -5.17082
1 -0.826318 3.63267 -8.33298
1 -1.64635 3.54266 -8.7484
1 -2.47779 4.1358 -8.7349
1 -1.95226 4.82044 -8.21575
1 -1.58873 5.50129 -8.79406
1 -0.885122 5.46105 -8.11041
1 -0.267151 6.20842 -8.17402
1 0.619025 6.04013 -7.81597
1 0.693782 6.279 -8.77336
1 1.35418 5.84324 -9.27307
1 3.70081 4.36919 6.2835
1 4.12641 3.50081 6.46489
1 4.30702 2.91262 5.79248
1 3.91407 2.72267 4.92025
1 3.69322 2.87263 3.99409
1 3.76986 1.96295 3.69565
1 3.60473 1.08944 3.9839
1 3.5817 0.521326 3.16571
1 4.27044 0.442315 3.84969
1 3.9368 0.503163 4.74152
1 -0.64022 3.17783 3.0247
1 -1.29553 2.86364 2.42143
1 -0.627208 2.16692 2.41931
1 -0.172297 1.5992 3.05722
1 0.298383 2.46913 3.03666
1 0.841919 1.71544 2.7399
1 0.625239 2.2032 1.96114
1 -0.0547269 1.91147 1.32105
1 0.0659579 1.2773 2.04747
1 0.566308 0.664794 1.66623
1 -10.5537 -1.7446 -6.59144
1 -9.98079 -2.55995 -6.30232
1 -10.1082 -2.75538 -7.17264
1 10.6612 -3.25936 -6.63745
1 9.74635 -3.20294 -6.89017
1 9.57951 -2.6577 -7.68431
1 10.4001 -2.30285 -7.51599
1 10.4474 -3.20888 -7.68922
1 10.3753 -4.09279 -7.36921
1 9.89126 -4.32842 -8.24185
1 -9.2236 4.31731 7.06196
1 -9.94084 4.87055 6.67176
1 -9.45766 5.27665 5.96186
1 -10.3309 5.39263 5.63659
1 -10.2512 4.5129 5.35086
1 -10.2831 4.01781 4.49549
1 -9.88086 4.87111 4.47698
1 -9.08664 5.20996 4.03732
1 -9.10267 5.88801 3.39378
1 -8.1593 5.88308 3.57944
1 6.94151 -9.56065 2.0646
1 7.6822 -8.96547 1.8272
1 7.96508 -8.11744 2.19172
1 7.5536 -8.45649 2.99471
1 7.77352 -7.85739 3.68097
1 7.54216 -8.48733 4.45991
1 6.73403 -8.76051 3.94537
1 6.58266 -9.73365 3.68722
1 5.71875 -9.14258 3.59379
1 5.18523 -8.414 3.32218
1 -7.06 1.5987 -5.67193
1 -7.38372 1.18749 -4.86354
1 -7.37511 0.275611 -5.26047
1 -6.59491 -0.224999 -5.46285
1 -6.20578 -0.650672 -4.67638
1 -5.89141 -0.668431 -3.72989
1 -6.53706 -1.33183 -3.96351
1 -6.29783 -2.29346 -3.5704
1 -6.60419 -3.13694 -3.84273
1 -7.0592 -3.96684 -3.81738
1 -2.98117 5.89968 10.0049
1 -2.48897 5.13618 10.2875
1 -2.39234 4.17444 10.3061
1 -2.29491 3.39524 9.69065
1 -1.38526 3.52587 9.51749
1 -1.32179 2.71199 10.0704
1 -1.62048 3.49749 10.6247
1 -1.79627 2.68767 -10.2125
1 -2.23762 2.46129 -9.36743
1 -1.88264 1.67532 -8.98982
1 -0.208721 -0.328363 -0.881167
1 -0.356795 -0.145564 -1.80479
1 -0.87078 0.549627 -1.31873
1 -0.494396 1.06188 -2.11237
1 -0.407465 1.49849 -1.23393
1 0.278066 0.75014 -1.37186
1 0.0057152 0.756573 -0.422413
1 0.654826 1.0879 0.297476
1 0.474214 1.78595 -0.335834
1 1.16407 2.43482 -0.0397934
1 3.75529 3.05188 -5.68061
1 3.37391 3.86189 -5.92549
1 2.4761 3.49142 -5.50375
1 2.61198 2.65004 -5.02526
1 3.46258 2.51657 -4.44356
1 4.30976 2.7035 -4.77805
1 4.82959 2.73581 -5.51526
1 4.93833 1.7917 -5.29737
1 5.76361 2.27807 -5.09153
1 6.18158 1.58565 -5.51256
1 5.34863 7.61576 -0.489111
1 4.69027 7.22116 -1.04743
1 4.27383 6.43674 -1.3162
1 4.20267 5.4403 -1.33138
1 4.90049 5.88122 -1.82305
1 5.55269 6.65393 -1.62815
1 5.78143 7.49741 -2.01808
1 6.60913 7.08928 -1.71227
1 7.52629 6.8093 -1.72437
1 8.31882 7.24197 -1.33048
1 4.36123 -0.0916606 10.458
1 3.69236 0.225123 9.89454
1 2.87229 0.510119 9.41914
1 3.60556 0.316095 8.81262
1 3.54137 1.25618 9.08567
1 2.99145 2.02257 9.41433
1 3.27607 2.51264 8.6399
1 4.14648 2.77484 8.32064
1 4.25046 1.7288 8.56798
1 5.1256 2.21167 8.53553
1 1.88186 7.39057 5.46544
1 1.41456 7.61353 4.6511
1 0.549892 7.52797 4.25895
1 -0.0201738 7.39762 5.02279
1 -0.494938 7.43057 5.81486
1 -0.406133 8.31221 5.66908
1 -0.608291 9.17114 5.30303
1 -1.05705 8.47379 4.82716
1 -1.54986 8.16097 5.52926
1 -1.1895 8.71187 6.20582
1 10.5141 2.08892 -0.681263
1 -10.3768 2.84329 -0.99431
1 -9.76226 2.43682 -1.63446
1 -8.82937 2.29461 -1.50671
1 -9.30208 2.78048 -0.763744
1 -9.27836 3.10058 0.183432
1 -8.74086 3.93681 0.532106
1 -8.08822 4.38983 0.023559
1 -8.15281 5.35284 0.209229
1 -7.94164 5.11245 -0.776474
1 -7.41636 -2.70456 -4.27452
1 -6.60335 -2.50705 -4.80623
1 -6.38679 -1.64328 -5.2422
1 -5.58332 -1.65728 -5.74951
1 -5.08401 -0.954229 -5.29717
1 -4.91726 -0.361495 -6.029
1 -4.07769 0.121364 -5.91307
1 -4.3891 0.673785 -5.26391
1 -5.18896 0.966182 -4.79868
1 -5.63603 0.157889 -4.65933
1 8.39168 10.6916 3.4062
1 9.12567 -10.0117 3.3259
1 9.17207 -10.1229 2.41116
1 10.1592 -10.2245 2.25677
1 10.4486 -9.79331 3.08596
1 10.1554 -10.1937 3.88274
1 -10.5823 -10.4321 4.41648
1 -9.61558 -10.2984 4.39648
1 -8.8481 10.5685 4.37333
1 -8.37676 9.91915 3.76667
1 2.16304 3.10738 1.95249
1 1.51609 2.54214 2.37497
1 1.79007 3.00901 3.15917
1 1.23138 3.46693 3.7709
1 0.911572 3.97924 4.46238
1 1.8471 3.66944 4.60366
1 2.56196 3.23747 4.09419
1 3.09147 3.7332 4.77881
1 3.20605 3.33049 5.66747
1 2.30494 3.2479 5.99116
1 -5.53334 -1.18594 10.152
1 -5.57087 -0.387511 10.6469
1 -6.3723 -0.738918 -10.4678
1 -7.06785 -0.0836318 -10.2909
1 -7.77079 0.00677251 10.5108
1 -8.31377 -0.582085 -10.4758
1 -8.13532 -0.65425 -9.50458
1 -8.67326 -1.35715 -9.23225
1 -8.23195 -1.62825 -10.056
1 -8.32822 -1.66793 10.4375
1 3.99652 0.690958 2.0342
1 4.42197 0.00232844 1.47301
1 5.02033 0.661814 1.19479
1 5.54824 0.0071131 1.62373
1 5.92445 -0.0922279 2.50313
1 6.13578 0.360792 3.43925
1 5.41127 0.773311 3.96979
1 5.0305 1.18812 3.28197
1 5.45821 2.13048 3.60832
1 5.21301 2.89322 4.06297
1 -2.66814 4.74319 -6.16683
1 -2.1503 3.93904 -6.15968
1 -1.31114 4.30622 -5.99911
1 -0.397627 4.44688 -5.99308
1 0.530127 4.52732 -5.62681
1 0.422408 5.29656 -5.07601
1 0.881763 6.10292 -5.21212
1 1.47301 5.8841 -4.53681
1 2.02933 5.89274 -3.77321
1 2.41857 5.50131 -4.48442
1 0.302197 -4.84152 4.57898
1 0.810389 -4.23036 5.02393
1 0.75763 -3.32204 4.73619
1 1.14975 -2.53191 5.19331
1 1.9522 -2.59584 4.748
1 2.81131 -2.14973 4.59258
1 2.65781 -3.02895 4.28167
1 2.43492 -3.5414 3.57489
1 1.90345 -2.86429 3.18263
1 2.47362 -2.00794 3.13063
1 3.24938 4.57175 -9.24002
1 2.91465 3.7446 -9.57315
1 2.00146 3.99758 -9.44284
1 2.11403 3.60616 -8.57831
1 2.96545 3.19029 -8.37153
1 3.23577 2.20963 -8.24095
1 3.41615 1.25434 -8.42984
1 3.06984 0.408854 -8.90838
1 3.24424 0.146595 -7.9819
1 2.64194 0.70973 -7.49552
1 9.83183 0.97132 9.87439
1 9.58079 1.46455 9.1164
1 9.55034 1.63771 8.19877
1 9.05579 2.2369 7.67439
1 8.18068 2.04225 7.1819
1 7.67438 1.37804 6.69707
1 8.11262 0.935358 5.92378
1 7.99947 -0.00495871 6.31191
1 7.81883 -0.845325 6.83608
1 7.0783 -0.219125 7.11331
1 3.16885 2.39301 1.46194
1 3.02842 3.31223 1.25704
1 2.60118 4.0474 1.67206
1 3.28552 4.33822 2.24488
1 4.0787 4.48284 2.7037
1 3.94849 5.45325 2.82104
1 3.82582 5.47162 3.70787
1 3.00172 5.82811 3.33792
1 2.49674 6.61382 3.63489
1 2.18981 6.31925 2.81899
1 -3.401 -5.45576 -1.10804
1 -3.09018 -5.39451 -2.04855
1 -3.03234 -4.57773 -2.67776
1 -3.51905 -4.39645 -1.87295
1 -2.87455 -3.76505 -1.60202
1 -2.40299 -3.29024 -0.942368
1 -3.1363 -2.64909 -1.16545
1 -2.57858 -1.84944 -0.768622
1 -1.73132 -1.44617 -0.427063
1 -1.2438 -0.841968 0.133292
1 -2.57523 -6.10433 -3.86332
1 -2.06419 -6.80433 -3.3924
1 -2.56196 -7.54536 -3.2807
1 -3.01973 -8.21796 -2.82844
1 -3.81367 -7.70152 -2.96909
1 -4.16576 -8.22414 -2.17316
1 -5.13418 -8.10851 -2.1895
1 -6.03274 -7.76357 -2.09328
1 -6.08312 -8.04386 -1.18796
1 -6.94217 -8.02951 -1.58581
1 -9.54149 1.09458 8.25186
1 -8.98368 0.378432 7.96397
1 -8.20724 0.75853 8.37661
1 -8.86216 0.663697 9.08539
1 -9.33515 1.22847 9.66574
1 -9.92244 0.617314 9.36084
1 -9.7839 0.462857 10.266
1 -9.25808 -0.285457 10.3588
1 -10.1066 -0.487005 -10.6601
1 -10.1531 -0.669649 9.85054
1 1.52068 3.24921 -3.17611
1 1.55718 2.23505 -3.46834
1 0.716499 2.41267 -2.93329
1 0.0347459 2.08842 -2.25761
1 -0.278093 1.86601 -3.10028
1 -0.963093 2.05656 -3.76495
1 -0.157361 1.81499 -4.18882
1 0.386472 1.13999 -3.88607
1 0.978479 1.82542 -4.26986
1 1.10896 1.15511 -4.97785
1 -1.61999 -3.43974 -6.57108
1 -0.888861 -3.24201 -7.12979
1 -0.772947 -3.3975 -8.05819
1 -1.60703 -3.78561 -8.17681
1 -1.3247 -4.24329 -7.39159
1 -1.71447 -5.01436 -6.88177
1 -1.64456 -4.40289 -6.18875
1 -2.06234 -4.91388 -5.50635
1 -1.16533 -4.70265 -5.12029
1 -0.838907 -5.16351 -5.90778
1 -8.71007 -4.23019 0.0532936
1 -8.64395 -4.35211 1.00172
1 -8.05448 -5.23103 0.846696
1 -7.76544 -4.32861 0.681552
1 -7.05976 -3.75331 0.942672
1 -7.68782 -3.10971 0.505495
1 -7.17021 -2.34262 0.336675
1 -6.99676 -1.75201 1.00907
1 -6.67919 -0.900541 1.26265
1 -6.02764 -1.57507 1.23545
1 4.90196 -9.27846 9.68071
1 5.85143 -9.58589 9.54087
1 6.05391 -10.5537 9.55375
1 6.92418 10.7096 10.0012
1 7.71399 10.2305 9.79403
1 8.5082 10.4092 10.3011
1 8.9761 -10.3672 9.80753
1 8.28665 -10.4546 9.1234
1 8.53644 10.0447 9.21792
1 9.53384 10.0249 9.4157
1 -7.8061 -9.16004 -1.29506
1 -8.57121 -8.78495 -0.76841
1 -8.34466 -9.62098 -0.460462
1 -8.43918 -10.0218 -1.30194
1 -7.86862 -10.7029 -1.74046
1 -7.09935 10.3687 -1.322
1 -6.33865 10.0451 -0.705882
1 -6.32635 -10.4259 -0.403952
1 -6.13524 -10.3277 -1.41516
1 -5.86589 10.2431 -1.61787
1 3.84986 -4.76596 -10.5024
1 4.14377 -5.02013 -9.66014
1 5.13198 -5.06031 -9.61474
1 5.58787 -4.28739 -9.89974
1 5.34174 -4.17699 10.6371
1 5.03553 -5.00951 10.2425
1 5.59404 -5.29851 -10.5239
1 6.16122 -5.05048 10.0485
1 5.60833 -4.64986 9.32056
1 4.81212 -4.17072 9.70695
1 8.92219 -1.33624 -1.50326
1 8.26536 -1.92709 -1.15028
1 8.11618 -2.14481 -2.11308
1 8.97726 -2.55045 -2.03001
1 9.61904 -2.05508 -1.55125
1 9.91593 -1.21818 -2.0065
1 10.4692 -1.36366 -2.8043
1 9.75466 -1.98112 -2.65953
1 9.52498 -2.81545 -3.01326
1 9.65438 -2.07366 -3.67314
1 -3.43427 -5.18541 4.97474
1 -3.33194 -5.86057 5.64376
1 -2.80593 -6.54375 6.3249
1 -2.20655 -7.16867 6.82696
1 -1.94133 -6.28773 6.98495
1 -0.956327 -6.34996 6.85765
1 -0.790739 -6.94497 6.14361
1 -0.838252 -7.67588 6.72421
1 -0.417969 -8.43637 7.14904
1 -0.620219 -8.55888 8.12055
1 1.42776 -1.88046 3.00592
1 1.91793 -1.29489 2.39816
1 1.07113 -0.898261 1.98275
1 0.845904 -0.628315 1.12794
1 1.59181 -1.19048 1.04557
1 1.86858 -2.06313 0.829485
1 1.67136 -2.34381 1.69529
1 2.05206 -3.21436 1.99104
1 2.65496 -3.64828 1.43878
1 3.01462 -2.83177 1.08638
1 -1.0581 -9.70121 -8.46056
1 -0.342996 -10.2859 -8.34989
1 -0.219236 10.1419 -8.41592
1 -1.09288 10.4178 -8.75388
1 -1.82129 -10.5485 -8.3615
1 -2.66314 -10.7024 -7.86577
1 -2.77077 10.0713 -7.15882
1 -2.39458 9.13453 -7.02683
1 -3.00875 8.53374 -6.30595
1 -2.30675 8.40726 -5.68183
1 -8.47797 5.57242 2.65311
1 -7.79921 6.28593 2.65129
1 -8.34026 6.94432 2.94369
1 -9.02116 7.08606 2.27926
1 -9.71599 7.72676 2.45016
1 -9.8874 8.33896 3.31086
1 -9.11184 7.84562 3.31933
1 -8.18825 8.07109 3.32667
1 -7.72598 8.68997 2.77588
1 -7.11411 8.53362 2.08182
1 6.31002 -10.3365 4.71144
1 7.03655 -10.2187 5.36334
1 7.3358 -9.58627 4.77409
1 7.30523 -10.4403 4.25604
1 7.72337 10.4843 4.93718
1 8.63927 10.5705 5.10159
1 8.50015 9.93293 4.37893
1 7.74981 9.82009 3.77272
1 7.42415 10.0298 2.88083
1 6.92171 -10.6286 2.77823
1 8.82287 -1.21262 -7.60978
1 9.62457 -0.7663 -7.65643
1 9.4641 -0.420055 -6.83247
1 10.386 -0.720768 -6.89962
1 -10.4192 -0.0744204 -7.25749
1 -9.43741 -0.0583176 -7.347
1 -9.70903 -0.219097 -6.47995
1 -10.0679 0.312221 -5.63882
1 10.5196 -0.238989 -5.89928
1 10.5988 0.554664 -6.36671
1 7.74166 -2.1087 4.84724
1 8.27715 -2.90595 4.59981
1 9.10023 -3.20124 4.23284
1 8.63672 -2.79704 3.45734
1 8.32798 -2.86679 2.54175
1 9.03949 -3.49191 2.84255
1 8.24188 -3.85586 3.24017
1 8.00177 -3.72729 4.15372
1 8.34476 -3.69346 5.08219
1 7.4724 -3.56834 5.61124
1 3.53222 -9.76909 10.702
1 3.02655 -10.1227 -10.0033
1 2.10269 -10.3367 -10.0103
1 2.56423 10.5689 -10.6234
1 3.17297 -10.6038 10.1773
1 2.73968 10.5783 9.30366
1 3.03945 -10.0185 8.9771
1 3.07656 -9.21333 8.48662
1 3.72928 -8.55084 8.1391
1 2.94108 -8.17951 7.69301
1 -0.859858 6.7768 10.0278
1 0.00686048 7.18897 10.1994
1 -0.64616 7.84852 10.3384
1 -1.25577 8.06348 -10.3351
1 -0.455586 8.09845 -9.79679
1 0.23896 8.17041 -10.4872
1 0.394893 8.88184 10.2891
1 1.30766 8.6475 10.5597
1 1.09326 7.86342 10.0655
1 0.94784 7.35943 -10.5138
1 1.10541 -2.4429 9.42719
1 0.91668 -1.51963 9.30987
1 0.502084 -1.06314 8.58416
1 1.39967 -0.676137 8.84637
1 0.631572 0.0611338 8.85638
1 0.484049 1.00244 9.28274
1 0.705103 1.84282 9.03573
1 1.342 1.69522 8.26432
1 1.70866 2.58657 8.22971
1 2.42531 3.15657 8.21813
1 10.6906 -7.004 7.7512
1 10.4299 -6.62172 6.95014
1 9.56952 -6.75933 7.45455
1 9.01669 -7.31372 6.93463
1 8.80663 -8.21924 7.36699
1 8.60609 -7.69393 8.17125
1 8.37943 -7.52631 9.08802
1 8.80656 -7.86719 9.88769
1 9.61236 -7.38875 9.71125
1 10.0802 -6.56631 9.85314
1 1.4795 -0.386081 -2.43025
1 1.70911 -1.36054 -2.47282
1 1.42989 -1.19792 -1.5851
1 0.781564 -0.399678 -1.32135
1 0.710953 -0.51852 -0.301033
1 0.940003 0.404061 -0.507872
1 1.89489 0.586439 -0.727986
1 2.09345 0.0300444 -1.50394
1 3.02523 0.300798 -1.27635
1 3.68884 1.00649 -1.30377
1 9.69631 -4.45033 7.23232
1 10.5246 -4.68371 6.77228
1 -10.6351 -4.5261 5.87274
1 10.2348 -4.6092 5.06804
1 9.73018 -3.80307 5.02098
1 10.3964 -3.5516 5.63431
1 9.7555 -4.13081 6.15094
1 9.39458 -3.28687 5.72571
1 9.16806 -2.54256 5.03573
1 10.0835 -2.81388 4.91451
1 7.34592 -7.83949 0.098805
1 7.95743 -8.1646 0.727538
1 8.37246 -8.96665 0.283262
1 8.84541 -8.29207 -0.119942
1 9.48459 -8.8492 0.383184
1 10.0504 -8.1266 0.752024
1 9.83011 -7.31925 0.30691
1 9.76515 -7.1878 1.297
1 8.97672 -6.78214 1.03091
1 8.53209 -7.41558 1.49857
1 -4.93091 2.71707 -9.02805
1 -4.95419 2.37174 -9.93608
1 -4.06614 2.76694 -9.95551
1 -3.25301 3.07244 -9.61568
1 -4.05558 3.73748 -9.48474
1 -4.27454 3.36867 -8.60472
1 -5.19549 3.67664 -8.49436
1 -5.62983 3.6064 -9.4025
1 -6.39176 3.32348 -8.85882
1 -6.79462 3.0727 -7.976
1 -1.00301 7.41344 4.58947
1 -1.56153 6.96376 5.15518
1 -1.44746 7.16128 6.0537
1 -0.902709 7.00332 6.82645
1 -1.28137 7.68271 7.41552
1 -1.37616 7.32269 8.24735
1 -2.19207 7.228 8.54807
1 -2.72643 6.60046 9.13379
1 -3.26779 5.87686 8.70842
1 -3.34148 5.95372 7.79324
1 -8.39988 6.17073 -7.89813
1 -9.06585 5.49504 -8.13065
1 -9.43907 5.52754 -7.24205
1 -10.174 5.08513 -6.7877
1 -10.5493 5.94669 -6.96517
1 10.0289 6.23148 -7.23912
1 10.0151 6.3056 -8.19612
1 -10.5544 6.38619 -7.91824
1 -10.0587 5.74808 -8.43603
1 -10.6966 6.21115 -8.99884
1 7.75874 -9.42488 3.78428
1 7.9285 -9.92337 2.93242
1 8.02631 -10.7156 2.42524
1 8.45842 -10.3811 1.67218
1 8.1669 -9.55839 1.19458
1 8.69861 -8.66626 1.30371
1 9.04254 -7.89962 0.880247
1 9.35154 -7.94819 1.80986
1 10.0256 -8.01593 2.54984
1 9.67948 -8.12123 3.46623
1 6.06482 -5.87903 -6.84034
1 6.57826 -6.64277 -6.73617
1 7.42672 -6.34373 -7.25797
1 7.68567 -6.40256 -8.24938
1 8.10991 -5.55096 -8.49931
1 8.11657 -5.36967 -9.43105
1 7.0568 -5.59508 -9.36124
1 6.92654 -6.44138 -8.88782
1 7.54223 -7.13622 -9.09805
1 7.54681 -7.76779 -8.33992
1 7.59627 -5.38535 8.53915
1 8.65617 -5.1718 8.58196
1 9.34599 -5.0802 9.19128
1 9.81648 -4.9808 8.30122
1 9.29698 -4.17821 8.6093
1 9.79469 -3.42221 8.96069
1 9.97261 -3.35328 7.99822
1 9.6404 -2.61275 7.52381
1 9.48646 -3.31734 6.70791
1 10.4939 -3.60333 6.82874
1 4.53171 9.15716 -0.545821
1 4.68114 9.75761 -1.27506
1 4.04427 9.11363 -1.53455
1 3.20279 8.54316 -1.36133
1 3.0917 9.2319 -2.08745
1 2.34768 9.68202 -1.71448
1 2.4102 9.34314 -0.79913
1 1.77559 10.1311 -0.8595
1 1.04057 -10.6542 -0.925825
1 0.200356 -10.5781 -1.41852
1 -7.62137 2.50863 3.85818
1 -8.07102 2.28653 3.05388
1 -7.44348 2.21816 2.28442
1 -7.08275 2.89246 1.69945
1 -7.90294 2.43749 1.33449
1 -7.67253 1.52755 1.38811
1 -8.33695 1.58661 2.18671
1 -8.58522 1.4814 3.13511
1 -8.61361 1.44686 4.08933
1 -8.07351 0.65384 3.94012
1 8.71785 7.28231 -5.61781
1 8.81234 8.34939 -5.45047
1 8.26609 9.09217 -5.65575
1 8.06253 9.67924 -6.34525
1 8.34636 9.53152 -7.2879
1 8.06395 10.2854 -7.74552
1 7.5114 9.54051 -8.02437
1 7.72741 9.9077 -8.98063
1 7.0625 10.5423 -9.48897
1 7.64523 -10.2836 -9.07702
1 -2.13809 0.54937 -4.78391
1 -2.96325 1.10185 -4.78298
1 -3.13565 1.29681 -3.86192
1 -2.8677 2.19525 -3.83368
1 -1.94792 2.2457 -4.01581
1 -1.86593 1.33548 -3.88962
1 -1.93939 0.921086 -2.96486
1 -2.68563 0.401222 -3.31202
1 -3.58653 0.646952 -3.21832
1 -4.11258 0.828784 -2.45246
1 -8.35019 -7.65633 -9.38081
1 -8.81148 -6.89243 -9.76488
1 -8.62476 -6.71225 -10.662
1 -8.73436 -5.80245 10.4649
1 -8.19372 -6.42664 9.82665
1 -8.27932 -5.88562 9.04589
1 -7.58348 -5.28483 8.82891
1 -7.1426 -5.9224 8.28915
1 -7.96418 -5.57146 7.89899
1 -8.21208 -6.16556 7.23371
1 10.1595 3.69811 6.91527
1 10.5017 2.86091 6.52295
1 -10.6884 1.99595 6.78398
1 10.2341 1.54017 7.47444
1 -10.4217 1.4896 8.0222
1 10.616 0.628513 7.83891
1 -10.2439 0.84409 7.12334
1 -9.36513 1.15148 6.82806
1 -9.37729 0.822815 5.94882
1 -9.42211 -0.0627915 5.58778
1 4.81186 0.808708 5.44355
1 4.94976 0.664635 6.37481
1 5.50841 1.53938 6.25898
1 5.85855 2.18822 5.63075
1 6.39726 2.08341 4.90436
1 6.09153 2.93703 4.92719
1 5.14492 2.73901 5.13498
1 5.31103 3.07728 5.97783
1 6.09347 3.54411 5.96559
1 6.86374 3.76525 6.44975
1 10.0444 -6.94096 -3.30141
1 10.4425 -7.38528 -4.05103
1 10.3439 -7.47695 -4.98992
1 9.45436 -7.34166 -5.39805
1 8.44123 -7.23122 -5.43351
1 8.75028 -7.21177 -6.31295
1 9.08645 -7.29593 -7.28183
1 9.58478 -7.73652 -8.00722
1 9.70818 -8.59395 -8.64688
1 9.65881 -8.97098 -7.76219
1 7.80009 1.32564 -10.6661
1 8.24964 0.684563 10.1863
1 9.00693 0.0804304 10.0462
1 9.76676 -0.144279 9.57371
1 9.33215 -1.02442 9.75817
1 8.88505 -0.94887 8.8959
1 9.49299 -1.62827 8.50343
1 9.68592 -0.664847 8.36053
1 10.5694 -1.06744 8.37725
1 10.3603 -1.33903 9.28036
1 5.91573 3.41627 -4.25994
1 5.94658 3.79893 -3.33896