units 		lj
dimension 	3

#atom_style	bond
# if there are angular potentials, use next line
atom_style	angle
angle_style	cosine

read_data k{10}t{1.2}p{0.0}f{5}n{8000}npt.lmp #comment me after t1.2
  orthogonal box = (-10 -10 -10) to (10 10 10)
  2 by 2 by 2 MPI processor grid
  reading atoms ...
  8000 atoms
  reading velocities ...
  8000 velocities
  scanning bonds ...
  1 = max bonds/atom
  scanning angles ...
  1 = max angles/atom
  reading bonds ...
  7200 bonds
  reading angles ...
  320 angles
  2 = max # of 1-2 neighbors
  2 = max # of 1-3 neighbors
  4 = max # of 1-4 neighbors
  6 = max # of special neighbors
  special bonds CPU = 0.42722 secs
  read_data CPU = 0.842105 secs
#read_restart k${k}t${T}p${p}f${f}n${n}npt-1.res #todo: use both instead of 1? talk to Starr

pair_style	lj/cut	2.5
#when using global * * the cutoff should be the smallest of all possible pairs
pair_coeff	* *	1.0 1.0 2.5  #final 2.5 is redundant here; can override global
pair_modify	shift	yes

bond_style	fene
bond_coeff	1	30 1.5		1.0 1.0
special_bonds fene
  2 = max # of 1-2 neighbors
  6 = max # of special neighbors
  special bonds CPU = 0.186054 secs

angle_coeff 	1 ${k}
angle_coeff 	1 10

fix	1	all npt	temp ${T} ${T}  1.0   iso ${p} ${p} 5.0 #todo: is this what f is?
fix	1	all npt	temp 1.2 ${T}  1.0   iso ${p} ${p} 5.0 
fix	1	all npt	temp 1.2 1.2  1.0   iso ${p} ${p} 5.0 
fix	1	all npt	temp 1.2 1.2  1.0   iso 0.0 ${p} 5.0 
fix	1	all npt	temp 1.2 1.2  1.0   iso 0.0 0.0 5.0 
#starting temperature/ending Temperature/Tdamp
fix cmvel all momentum 1000 linear 1 1 1

# todo: find a way to store energy between two different types of poly chains
thermo_style custom step ke pe etotal epair ebond eangle press temp lx vol
thermo 1000

dump 1 all xyz	100000	dump${k}.xyz
dump 1 all xyz	100000	dump10.xyz

restart 1000 k${k}t${T}p${p}f${f}n${n}npt-1.res k${k}t${T}p${p}f${f}n${n}npt-2.res
restart 1000 k10t${T}p${p}f${f}n${n}npt-1.res k${k}t${T}p${p}f${f}n${n}npt-2.res
restart 1000 k10t1.2p${p}f${f}n${n}npt-1.res k${k}t${T}p${p}f${f}n${n}npt-2.res
restart 1000 k10t1.2p0.0f${f}n${n}npt-1.res k${k}t${T}p${p}f${f}n${n}npt-2.res
restart 1000 k10t1.2p0.0f5n${n}npt-1.res k${k}t${T}p${p}f${f}n${n}npt-2.res
restart 1000 k10t1.2p0.0f5n8000npt-1.res k${k}t${T}p${p}f${f}n${n}npt-2.res
restart 1000 k10t1.2p0.0f5n8000npt-1.res k10t${T}p${p}f${f}n${n}npt-2.res
restart 1000 k10t1.2p0.0f5n8000npt-1.res k10t1.2p${p}f${f}n${n}npt-2.res
restart 1000 k10t1.2p0.0f5n8000npt-1.res k10t1.2p0.0f${f}n${n}npt-2.res
restart 1000 k10t1.2p0.0f5n8000npt-1.res k10t1.2p0.0f5n${n}npt-2.res
restart 1000 k10t1.2p0.0f5n8000npt-1.res k10t1.2p0.0f5n8000npt-2.res

#run_style respa 2 3 bond 1 pair 2
#timestep 0.006

timestep 0.002

run 10000000
Neighbor list info ...
  update every 1 steps, delay 10 steps, check yes
  max neighbors/atom: 2000, page size: 100000
  master list distance cutoff = 2.8
  ghost atom cutoff = 2.8
  binsize = 1.4, bins = 15 15 15
  1 neighbor lists, perpetual/occasional/extra = 1 0 0
  (1) pair lj/cut, perpetual
      attributes: half, newton on
      pair build: half/bin/newton
      stencil: half/bin/3d/newton
      bin: standard
WARNING: Inconsistent image flags (../domain.cpp:785)
Per MPI rank memory allocation (min/avg/max) = 6.496 | 6.516 | 6.649 Mbytes
Step KinEng PotEng TotEng E_pair E_bond E_angle Press Temp Lx Volume 
       0   0.48448444    12.984424    13.468909   -5.6481987    18.329377   0.30324602   -1.5880033   0.32303001           20         8000 
    1000   0.74452254    12.975115    13.719638   -5.5857241    18.395793   0.16504629 -0.079712712   0.49641041    19.933896    7920.9368 
    2000   0.93274678    13.206135    14.138882   -5.3998142    18.459456   0.14649341   0.16263744   0.62190892    20.060818    8073.2043 
    3000    1.1233452    13.536471    14.659817   -5.1151873    18.522791   0.12886738   0.17044332   0.74899044     20.26849    8326.5324 
    4000    1.3256878    13.921858    15.247546   -4.7953419    18.597296   0.11990434   0.44319666   0.88390238    20.520167    8640.5757 
    5000    1.5468893    14.298673    15.845562   -4.4669394    18.653449    0.1121638   0.41373313    1.0313885    20.831677    9040.0888 
    6000    1.7706082     14.59869    16.369298   -4.2174214    18.713973   0.10213823  0.097340643     1.180553    21.114549    9413.3766 
    7000    1.8450432    14.812636     16.65768   -4.0277061    18.746012  0.094330911   0.13445158    1.2301826    21.349324    9730.8865 
    8000    1.8173152    14.816363    16.633678   -3.9918386    18.723319  0.084882396 -0.090054517    1.2116949    21.439856    9855.2034 
    9000    1.7790428    14.806094    16.585137   -4.0013329    18.730441  0.076986083 -0.015705505    1.1861768    21.422057    9830.6795 
   10000    1.8082466    14.820339    16.628586   -4.0084796    18.752604  0.076214531  -0.12992817    1.2056485    21.410961    9815.4115 
   11000    1.8096286    14.803431     16.61306   -3.9912329    18.720882  0.073781671   0.15957854    1.2065699    21.427159    9837.7043 
   12000     1.800172    14.793533    16.593705   -3.9972665    18.721808  0.068991711 -0.093440182    1.2002647    21.416797    9823.4394 
   13000    1.8095662    14.782335    16.591901   -4.0142299    18.727974  0.068591065   0.12713431    1.2065283    21.410745    9815.1132 
   14000    1.7900649    14.807161    16.597226   -3.9958484    18.734353  0.068657094  0.036241173    1.1935258    21.416741    9823.3622 
   15000    1.8120863    14.821746    16.633832   -3.9662948    18.723726  0.064314719  -0.03371043    1.2082085       21.441    9856.7805 
   16000    1.7987317    14.800721    16.599452   -3.9939724    18.734188  0.060505051   0.11514804    1.1993044    21.435611    9849.3511 
   17000    1.8057991    14.778281    16.584081   -4.0023559    18.717148  0.063488869 -0.059947568    1.2040166    21.409618    9813.5645 
   18000     1.784516    14.796093    16.580609   -3.9923151    18.721019   0.06738911  0.095631851     1.189826    21.430225    9841.9288 
   19000    1.8196756    14.811227    16.630903   -3.9955137    18.739529  0.067211689    0.1954146    1.2132688    21.414419     9820.167 
   20000    1.7809252     14.81051    16.591435   -3.9713442     18.71986  0.061994045 -0.082253767    1.1874319    21.459538      9882.37 
   21000    1.8099112    14.795317    16.605228   -3.9877892    18.726254   0.05685234  -0.02251099    1.2067583    21.415294     9821.371 
   22000    1.7827474    14.811773     16.59452   -3.9922852    18.745855  0.058203249  -0.11051515    1.1886469    21.437364    9851.7674 
   23000    1.7971149     14.78811    16.585225   -3.9944519    18.729274  0.053288546  0.048295164    1.1982264    21.397681    9797.1579 
   24000     1.774979    14.787069    16.562048   -3.9997134    18.729606  0.057176371  -0.10516006    1.1834673    21.415477    9821.6233 
   25000    1.7994235    14.812661    16.612085   -3.9799018    18.732069  0.060494496   0.10215627    1.1997656    21.424288    9833.7511 
   26000    1.7759894    14.822697    16.598687   -3.9642272    18.734749  0.052175245  -0.06852523    1.1841409    21.459471    9882.2775 
   27000    1.8388996     14.77302    16.611919   -3.9931918    18.710165  0.056046465  0.081425071    1.2260863    21.406734    9809.5985 
   28000     1.772624    14.776205    16.548829   -3.9929288    18.712986  0.056147637   0.03772848    1.1818971    21.441155    9856.9954 
   29000    1.8178901    14.803264    16.621154    -3.988998    18.734068  0.058193507  0.026483132    1.2120782    21.419027    9826.5085 
   30000    1.8027781    14.803523    16.606302    -3.972252    18.719757  0.056018639   -0.1752387    1.2020023    21.467109    9892.8337 
   31000    1.7952792    14.791067    16.586346   -3.9966919    18.730791  0.056967903    0.1214839    1.1970024    21.416921    9823.6101 
   32000    1.8041453     14.79471    16.598856   -4.0027754    18.739935  0.057551095 -0.060455734    1.2029139    21.421329     9829.677 
   33000    1.7963348    14.767536    16.563871   -4.0157848    18.725877   0.05744439 -0.037856322    1.1977063    21.396424    9795.4323 
   34000    1.8133008    14.754727    16.568028   -4.0154994    18.717349  0.052878283  0.061000931    1.2090184    21.404486    9806.5082 
   35000    1.7956782    14.797058    16.592736   -3.9711811    18.716885  0.051354332   0.15677066    1.1972684    21.433045    9845.8135 
   36000    1.7901485      14.8111    16.601248   -3.9625645    18.725722  0.047942533 -0.061071518    1.1935816    21.446977    9865.0259 
   37000     1.790896    14.815983    16.606879   -3.9734963     18.73502  0.054458893 0.0092379828    1.1940799    21.436887    9851.1093 
   38000    1.7896052    14.793025     16.58263   -3.9900292    18.731996  0.051058299  -0.04349272    1.1932193    21.410124    9814.2599 
   39000    1.7814959    14.770771    16.552267   -4.0125854    18.731096  0.052260284 -0.0092619264    1.1878124    21.387369    9783.0014 
   40000    1.7961603    14.766036    16.562196   -4.0095693     18.72752  0.048085321  0.069309965    1.1975899     21.37802    9770.1766 
   41000    1.7779371    14.804353     16.58229   -3.9704706    18.724801  0.050022258 -0.015600098    1.1854395      21.4488    9867.5422 
   42000    1.8190829    14.803755    16.622838   -3.9877142    18.740247    0.0512223 -0.026034706    1.2128736    21.428045    9838.9254 
   43000    1.7886749    14.762618    16.551293   -4.0098193    18.724201  0.048236916   0.26114696     1.192599    21.398869    9798.7909 
   44000    1.7850674    14.758455    16.543522   -4.0137605    18.724147  0.048067685 -0.082149791    1.1901937     21.39656     9795.618 
   45000    1.8114882     14.81981    16.631298    -3.965961    18.738381  0.047389976   0.01828021    1.2078098    21.450023    9869.2302 
   46000    1.8106858    14.805061    16.615747   -3.9774756    18.733796  0.048740909  -0.12379235    1.2072748      21.4591    9881.7651 
   47000    1.7934062    14.755802    16.549208   -4.0160895    18.722682  0.049209914    0.1199559    1.1957536    21.393029    9790.7692 
   48000    1.8031593    14.768001    16.571161   -4.0156722     18.73574  0.047933666  0.049172714    1.2022565    21.391156    9788.1983 
   49000    1.8059619    14.804538      16.6105   -3.9760265    18.728669  0.051895734  -0.17673786    1.2041251    21.432399    9844.9234 
   50000    1.8129078    14.766512     16.57942   -3.9996525    18.716171   0.04999375 -0.087053321    1.2087563     21.42752    9838.2019 
   51000    1.7798501    14.767041    16.546891   -4.0043034    18.723617  0.047727047 -0.070460947    1.1867151    21.403789    9805.5509 
   52000    1.8208992    14.772812    16.593711   -3.9982981    18.720201  0.050908997 -0.022423863    1.2140846    21.414323    9820.0358 
   53000    1.8133676    14.811768    16.625135   -3.9656177    18.726006  0.051379704 -0.019097623    1.2090628    21.474465    9903.0066 
   54000    1.7919262    14.799573      16.5915   -3.9897319    18.736795  0.052510795  -0.13705099    1.1947668     21.43326    9846.1104 
   55000    1.8012301     14.75696     16.55819   -4.0197959    18.725765  0.050991508   0.14508661    1.2009702    21.387778    9783.5624 
   56000    1.7905479    14.770238    16.560786   -3.9956127    18.715547  0.050303478 -0.035727765    1.1938478    21.420651    9828.7434 
   57000    1.8102222    14.833468     16.64369   -3.9475839    18.727097  0.053954804 -0.060943442    1.2069657    21.486655    9919.8808 
   58000     1.818508     14.81564    16.634148   -3.9771471    18.738458  0.054329232 -0.011589425    1.2124902    21.447051    9865.1291 
   59000    1.7627991    14.753591     16.51639   -4.0124061    18.717098  0.048899057 -0.033096677    1.1753463     21.40343    9805.0568 
   60000    1.8094718    14.750001    16.559473   -4.0294751    18.729963  0.049513584   0.19197389    1.2064653    21.368439    9757.0469 
   61000    1.8094198    14.786078    16.595498   -3.9883476    18.727183  0.047242214 -0.094750411    1.2064307    21.458048    9880.3112 
   62000    1.8056569    14.800202    16.605859    -3.998441    18.751964  0.046679493 -0.035527132    1.2039218    21.414167    9819.8209 
   63000    1.7827981    14.743256    16.526054   -4.0148027    18.711945  0.046113713 0.0043391957    1.1886806     21.39863    9798.4616 
   64000    1.7920777    14.767189    16.559267   -4.0200347     18.73756  0.049664304  0.086564977    1.1948678    21.372757    9762.9632 
   65000    1.7846641     14.79322    16.577884   -3.9822739    18.728771  0.046722378  -0.18113282    1.1899248    21.445893    9863.5309 
   66000    1.8110554    14.794121    16.605176   -3.9807171    18.728898  0.045939405  0.022359144    1.2075212    21.422718    9831.5887 
   67000    1.7779768    14.784731    16.562708   -3.9824263    18.720084  0.047073558 -0.086197838    1.1854661    21.435765    9849.5628 
   68000    1.8141082     14.76316    16.577268   -4.0127624    18.725491  0.050431418 -0.040331833    1.2095566    21.396763    9795.8974 
   69000     1.794084     14.76624    16.560324   -3.9920578    18.712912  0.045386397   0.16530884    1.1962055    21.436432    9850.4826 
   70000    1.8203208    14.769568    16.589889   -4.0115309     18.73389  0.047208376 -0.084506183    1.2136989    21.401738     9802.732 
   71000    1.7900959    14.769765    16.559861   -4.0118383    18.737093   0.04450984  -0.22688895    1.1935465    21.431901    9844.2368 
   72000    1.8125072    14.745711    16.558218   -4.0254216    18.728701  0.042431417 0.0076444893    1.2084892    21.358894    9743.9773 
   73000    1.7746515    14.765481    16.540132   -4.0123215    18.734666  0.043135834   0.03247833    1.1832489    21.405584    9808.0175 
   74000    1.8096808    14.776079    16.585759   -4.0227991    18.751852  0.047025638  0.061558685    1.2066047    21.379837    9772.6681 
   75000    1.7728449    14.793097    16.565942   -3.9901723    18.733243  0.050026507 0.0096414425    1.1820444    21.423175    9832.2188 
   76000    1.8092835    14.772049    16.581332   -4.0050087    18.727368  0.049689102  -0.13989151    1.2063398    21.427917    9838.7487 
   77000    1.8028917    14.800664    16.603555   -3.9739863    18.726815  0.047835133   0.26500808     1.202078    21.429066    9840.3318 
   78000    1.8070535    14.804432    16.611486    -3.976677    18.732543  0.048565925 -0.059832747     1.204853     21.45808    9880.3552 
   79000    1.8029901    14.775918    16.578909   -3.9769786    18.708585  0.044312099  0.031395885    1.2021436    21.443231    9859.8584 
   80000    1.7932781    14.755791    16.549069   -4.0115512    18.719847  0.047495252  -0.11897468    1.1956682    21.403492    9805.1423 
   81000    1.8114935     14.79438    16.605874   -3.9884143    18.733123  0.049671093  -0.12956807    1.2078133    21.432447    9844.9901 
   82000    1.8095809    14.770177    16.579758   -4.0089958    18.728023  0.051149452    0.0202895    1.2065381    21.424635    9834.2286 
   83000    1.7893222    14.765917    16.555239   -3.9949478    18.718041  0.042823306   0.21742552    1.1930306    21.388726    9784.8637 
   84000    1.7876461     14.77826    16.565906   -3.9977582    18.730131  0.045887122 -0.045790225    1.1919131    21.419751    9827.5044 
   85000    1.8275725    14.790204    16.617777   -3.9827663    18.726884  0.046086914  -0.13457617     1.218534    21.436476    9850.5433 
   86000    1.7978059     14.76909    16.566896   -4.0120428    18.734002  0.047130639  0.038850306    1.1986871     21.41389    9819.4402 
   87000     1.802022    14.782951    16.584973   -3.9985025     18.73357   0.04788392   0.10977965    1.2014982    21.404749    9806.8705 
   88000    1.7909869    14.772777    16.563764   -4.0068691    18.729481  0.050165185  -0.12748965    1.1941405    21.404057    9805.9192 
   89000    1.7850349    14.739432    16.524467   -4.0325296    18.720147   0.05181446  0.055603275     1.190172    21.367053    9755.1481 
   90000    1.8024495    14.760445    16.562894   -4.0092113    18.720002  0.049653808  -0.20063329    1.2017832    21.423231    9832.2958 
   91000    1.8060195    14.796516    16.602535   -3.9775548    18.724514  0.049557215 -0.0073580535    1.2041635    21.428789    9839.9504 
   92000     1.792825    14.794019    16.586844     -3.98772    18.735868  0.045871292   0.12836197    1.1953661    21.421881    9830.4367 
   93000     1.801522  