units 		lj
dimension 	3

#atom_style	bond
# if there are angular potentials, use next line
atom_style	angle
angle_style	cosine

read_data t1.2p0.0n8000npt.lmp
  orthogonal box = (-10 -10 -10) to (10 10 10)
  2 by 2 by 2 MPI processor grid
  reading atoms ...
  8000 atoms
  reading velocities ...
  8000 velocities
  scanning bonds ...
  1 = max bonds/atom
  scanning angles ...
  1 = max angles/atom
  reading bonds ...
  7200 bonds
  reading angles ...
  320 angles
  2 = max # of 1-2 neighbors
  2 = max # of 1-3 neighbors
  4 = max # of 1-4 neighbors
  6 = max # of special neighbors
  special bonds CPU = 0.00123096 secs
  read_data CPU = 0.035032 secs

pair_style	lj/cut	2.5
#when using global * * the cutoff should be the smallest of all possible pairs
pair_coeff	* *	1.0 1.0 2.5  #final 2.5 is redundant here; can override global
pair_modify	shift	yes

bond_style	fene
bond_coeff	1	30 1.5		1.0 1.0
special_bonds fene
  2 = max # of 1-2 neighbors
  6 = max # of special neighbors
  special bonds CPU = 0.000444889 secs

angle_coeff 	1 ${k}
angle_coeff 	1 10

fix	1	all npt	temp 1.2 1.2 1.0   iso 0.0 0.0 5.0
#starting temperature/ending Temperature/Tdamp
fix cmvel all momentum 1000 linear 1 1 1

thermo_style custom step ke pe etotal epair ebond eangle press temp lx vol
thermo 1000

dump 1 all xyz	1000	dump{$k}.xyz
dump 1 all xyz	1000	dump{10}.xyz

restart 1000 t1.2p0.0n8000npt-1.res 0.5p0.0n8000npt-2.res

#run_style respa 2 3 bond 1 pair 2
#timestep 0.006

timestep 0.002

run 10000000
Neighbor list info ...
  update every 1 steps, delay 10 steps, check yes
  max neighbors/atom: 2000, page size: 100000
  master list distance cutoff = 2.8
  ghost atom cutoff = 2.8
  binsize = 1.4, bins = 15 15 15
  1 neighbor lists, perpetual/occasional/extra = 1 0 0
  (1) pair lj/cut, perpetual
      attributes: half, newton on
      pair build: half/bin/newton
      stencil: half/bin/3d/newton
      bin: standard
WARNING: Inconsistent image flags (../domain.cpp:785)
Per MPI rank memory allocation (min/avg/max) = 6.496 | 6.516 | 6.649 Mbytes
Step KinEng PotEng TotEng E_pair E_bond E_angle Press Temp Lx Volume 
       0   0.48448444    12.984424    13.468909   -5.6481987    18.329377   0.30324602   -1.5880033   0.32303001           20         8000 
    1000   0.74452254    12.975115    13.719638   -5.5857241    18.395793   0.16504629 -0.079712712   0.49641041    19.933896    7920.9368 
    2000   0.93274678    13.206135    14.138882   -5.3998142    18.459456   0.14649341   0.16263744   0.62190892    20.060818    8073.2043 
    3000    1.1233452    13.536471    14.659817   -5.1151873    18.522791   0.12886738   0.17044332   0.74899044     20.26849    8326.5324 
    4000    1.3256878    13.921858    15.247546   -4.7953419    18.597296   0.11990434   0.44319666   0.88390238    20.520167    8640.5757 
    5000    1.5468893    14.298673    15.845562   -4.4669394    18.653449    0.1121638   0.41373313    1.0313885    20.831677    9040.0888 
    6000    1.7706082     14.59869    16.369298   -4.2174214    18.713973   0.10213823  0.097340643     1.180553    21.114549    9413.3766 
    7000    1.8450432    14.812636     16.65768   -4.0277061    18.746012  0.094330911   0.13445158    1.2301826    21.349324    9730.8865 
    8000    1.8173152    14.816363    16.633678   -3.9918386    18.723319  0.084882396 -0.090054517    1.2116949    21.439856    9855.2034 
    9000    1.7790428    14.806094    16.585137   -4.0013329    18.730441  0.076986083 -0.015705505    1.1861768    21.422057    9830.6795 
   10000    1.8082466    14.820339    16.628586   -4.0084796    18.752604  0.076214531  -0.12992817    1.2056485    21.410961    9815.4115 
   11000    1.8096286    14.803431     16.61306   -3.9912329    18.720882  0.073781671   0.15957854    1.2065699    21.427159    9837.7043 
   12000     1.800172    14.793533    16.593705   -3.9972665    18.721808  0.068991711 -0.093440182    1.2002647    21.416797    9823.4394 
   13000    1.8095662    14.782335    16.591901   -4.0142299    18.727974  0.068591065   0.12713431    1.2065283    21.410745    9815.1132 
   14000    1.7900649    14.807161    16.597226   -3.9958484    18.734353  0.068657094  0.036241173    1.1935258    21.416741    9823.3622 
   15000    1.8120863    14.821746    16.633832   -3.9662948    18.723726  0.064314719  -0.03371043    1.2082085       21.441    9856.7805 
   16000    1.7987317    14.800721    16.599452   -3.9939724    18.734188  0.060505051   0.11514804    1.1993044    21.435611    9849.3511 
   17000    1.8057991    14.778281    16.584081   -4.0023559    18.717148  0.063488869 -0.059947568    1.2040166    21.409618    9813.5645 
   18000     1.784516    14.796093    16.580609   -3.9923151    18.721019   0.06738911  0.095631851     1.189826    21.430225    9841.9288 
   19000    1.8196756    14.811227    16.630903   -3.9955137    18.739529  0.067211689    0.1954146    1.2132688    21.414419     9820.167 
   20000    1.7809252     14.81051    16.591435   -3.9713442     18.71986  0.061994045 -0.082253767    1.1874319    21.459538      9882.37 
   21000    1.8099112    14.795317    16.605228   -3.9877892    18.726254   0.05685234  -0.02251099    1.2067583    21.415294     9821.371 
   22000    1.7827474    14.811773     16.59452   -3.9922852    18.745855  0.058203249  -0.11051515    1.1886469    21.437364    9851.7674 
   23000    1.7971149     14.78811    16.585225   -3.9944519    18.729274  0.053288546  0.048295164    1.1982264    21.397681    9797.1579 
   24000     1.774979    14.787069    16.562048   -3.9997134    18.729606  0.057176371  -0.10516006    1.1834673    21.415477    9821.6233 
   25000    1.7994235    14.812661    16.612085   -3.9799018    18.732069  0.060494496   0.10215627    1.1997656    21.424288    9833.7511 
   26000    1.7759894    14.822697    16.598687   -3.9642272    18.734749  0.052175245  -0.06852523    1.1841409    21.459471    9882.2775 
   27000    1.8388996     14.77302    16.611919   -3.9931918    18.710165  0.056046465  0.081425071    1.2260863    21.406734    9809.5985 
   28000     1.772624    14.776205    16.548829   -3.9929288    18.712986  0.056147637   0.03772848    1.1818971    21.441155    9856.9954 
   29000    1.8178901    14.803264    16.621154    -3.988998    18.734068  0.058193507  0.026483132    1.2120782    21.419027    9826.5085 
   30000    1.8027781    14.803523    16.606302    -3.972252    18.719757  0.056018639   -0.1752387    1.2020023    21.467109    9892.8337 
   31000    1.7952792    14.791067    16.586346   -3.9966919    18.730791  0.056967903    0.1214839    1.1970024    21.416921    9823.6101 
   32000    1.8041453     14.79471    16.598856   -4.0027754    18.739935  0.057551095 -0.060455734    1.2029139    21.421329     9829.677 
   33000    1.7963348    14.767536    16.563871   -4.0157848    18.725877   0.05744439 -0.037856322    1.1977063    21.396424    9795.4323 
   34000    1.8133008    14.754727    16.568028   -4.0154994    18.717349  0.052878283  0.061000931    1.2090184    21.404486    9806.5082 
   35000    1.7956782    14.797058    16.592736   -3.9711811    18.716885  0.051354332   0.15677066    1.1972684    21.433045    9845.8135 
   36000    1.7901485      14.8111    16.601248   -3.9625645    18.725722  0.047942533 -0.061071518    1.1935816    21.446977    9865.0259 
   37000     1.790896    14.815983    16.606879   -3.9734963     18.73502  0.054458893 0.0092379828    1.1940799    21.436887    9851.1093 
   38000    1.7896052    14.793025     16.58263   -3.9900292    18.731996  0.051058299  -0.04349272    1.1932193    21.410124    9814.2599 
   39000    1.7814959    14.770771    16.552267   -4.0125854    18.731096  0.052260284 -0.0092619264    1.1878124    21.387369    9783.0014 
   40000    1.7961603    14.766036    16.562196   -4.0095693     18.72752  0.048085321  0.069309965    1.1975899     21.37802    9770.1766 
   41000    1.7779371    14.804353     16.58229   -3.9704706    18.724801  0.050022258 -0.015600098    1.1854395      21.4488    9867.5422 
   42000    1.8190829    14.803755    16.622838   -3.9877142    18.740247    0.0512223 -0.026034706    1.2128736    21.428045    9838.9254 
   43000    1.7886749    14.762618    16.551293   -4.0098193    18.724201  0.048236916   0.26114696     1.192599    21.398869    9798.7909 
   44000    1.7850674    14.758455    16.543522   -4.0137605    18.724147  0.048067685 -0.082149791    1.1901937     21.39656     9795.618 
   45000    1.8114882     14.81981    16.631298    -3.965961    18.738381  0.047389976   0.01828021    1.2078098    21.450023    9869.2302 
   46000    1.8106858    14.805061    16.615747   -3.9774756    18.733796  0.048740909  -0.12379235    1.2072748      21.4591    9881.7651 
   47000    1.7934062    14.755802    16.549208   -4.0160895    18.722682  0.049209914    0.1199559    1.1957536    21.393029    9790.7692 
   48000    1.8031593    14.768001    16.571161   -4.0156722     18.73574  0.047933666  0.049172714    1.2022565    21.391156    9788.1983 
   49000    1.8059619    14.804538      16.6105   -3.9760265    18.728669  0.051895734  -0.17673786    1.2041251    21.432399    9844.9234 
   50000    1.8129078    14.766512     16.57942   -3.9996525    18.716171   0.04999375 -0.087053321    1.2087563     21.42752    9838.2019 
   51000    1.7798501    14.767041    16.546891   -4.0043034    18.723617  0.047727047 -0.070460947    1.1867151    21.403789    9805.5509 
   52000    1.8208992    14.772812    16.593711   -3.9982981    18.720201  0.050908997 -0.022423863    1.2140846    21.414323    9820.0358 
   53000    1.8133676    14.811768    16.625135   -3.9656177    18.726006  0.051379704 -0.019097623    1.2090628    21.474465    9903.0066 
   54000    1.7919262    14.799573      16.5915   -3.9897319    18.736795  0.052510795  -0.13705099    1.1947668     21.43326    9846.1104 
   55000    1.8012301     14.75696     16.55819   -4.0197959    18.725765  0.050991508   0.14508661    1.2009702    21.387778    9783.5624 
   56000    1.7905479    14.770238    16.560786   -3.9956127    18.715547  0.050303478 -0.035727765    1.1938478    21.420651    9828.7434 
   57000    1.8102222    14.833468     16.64369   -3.9475839    18.727097  0.053954804 -0.060943442    1.2069657    21.486655    9919.8808 
   58000     1.818508     14.81564    16.634148   -3.9771471    18.738458  0.054329232 -0.011589425    1.2124902    21.447051    9865.1291 
   59000    1.7627991    14.753591     16.51639   -4.0124061    18.717098  0.048899057 -0.033096677    1.1753463     21.40343    9805.0568 
   60000    1.8094718    14.750001    16.559473   -4.0294751    18.729963  0.049513584   0.19197389    1.2064653    21.368439    9757.0469 
   61000    1.8094198    14.786078    16.595498   -3.9883476    18.727183  0.047242214 -0.094750411    1.2064307    21.458048    9880.3112 
   62000    1.8056569    14.800202    16.605859    -3.998441    18.751964  0.046679493 -0.035527132    1.2039218    21.414167    9819.8209 
   63000    1.7827981    14.743256    16.526054   -4.0148027    18.711945  0.046113713 0.0043391957    1.1886806     21.39863    9798.4616 
   64000    1.7920777    14.767189    16.559267   -4.0200347     18.73756  0.049664304  0.086564977    1.1948678    21.372757    9762.9632 
   65000    1.7846641     14.79322    16.577884   -3.9822739    18.728771  0.046722378  -0.18113282    1.1899248    21.445893    9863.5309 
   66000    1.8110554    14.794121    16.605176   -3.9807171    18.728898  0.045939405  0.022359144    1.2075212    21.422718    9831.5887 
   67000    1.7779768    14.784731    16.562708   -3.9824263    18.720084  0.047073558 -0.086197838    1.1854661    21.435765    9849.5628 
   68000    1.8141082     14.76316    16.577268   -4.0127624    18.725491  0.050431418 -0.040331833    1.2095566    21.396763    9795.8974 
   69000     1.794084     14.76624    16.560324   -3.9920578    18.712912  0.045386397   0.16530884    1.1962055    21.436432    9850.4826 
   70000    1.8203208    14.769568    16.589889   -4.0115309     18.73389  0.047208376 -0.084506183    1.2136989    21.401738     9802.732 
   71000    1.7900959    14.769765    16.559861   -4.0118383    18.737093   0.04450984  -0.22688895    1.1935465    21.431901    9844.2368 
   72000    1.8125072    14.745711    16.558218   -4.0254216    18.728701  0.042431417 0.0076444893    1.2084892    21.358894    9743.9773 
   73000    1.7746515    14.765481    16.540132   -4.0123215    18.734666  0.043135834   0.03247833    1.1832489    21.405584    9808.0175 
   74000    1.8096808    14.776079    16.585759   -4.0227991    18.751852  0.047025638  0.061558685    1.2066047    21.379837    9772.6681 
   75000    1.7728449    14.793097    16.565942   -3.9901723    18.733243  0.050026507 0.0096414425    1.1820444    21.423175    9832.2188 
   76000    1.8092835    14.772049    16.581332   -4.0050087    18.727368  0.049689102  -0.13989151    1.2063398    21.427917    9838.7487 
   77000    1.8028917    14.800664    16.603555   -3.9739863    18.726815  0.047835133   0.26500808     1.202078    21.429066    9840.3318 
   78000    1.8070535    14.804432    16.611486    -3.976677    18.732543  0.048565925 -0.059832747     1.204853     21.45808    9880.3552 
   79000    1.8029901    14.775918    16.578909   -3.9769786    18.708585  0.044312099  0.031395885    1.2021436    21.443231    9859.8584 
   80000    1.7932781    14.755791    16.549069   -4.0115512    18.719847  0.047495252  -0.11897468    1.1956682    21.403492    9805.1423 
   81000    1.8114935     14.79438    16.605874   -3.9884143    18.733123  0.049671093  -0.12956807    1.2078133    21.432447    9844.9901 
   82000    1.8095809    14.770177    16.579758   -4.0089958    18.728023  0.051149452    0.0202895    1.2065381    21.424635    9834.2286 
   83000    1.7893222    14.765917    16.555239   -3.9949478    18.718041  0.042823306   0.21742552    1.1930306    21.388726    9784.8637 
   84000    1.7876461     14.77826    16.565906   -3.9977582    18.730131  0.045887122 -0.045790225    1.1919131    21.419751    9827.5044 
   85000    1.8275725    14.790204    16.617777   -3.9827663    18.726884  0.046086914  -0.13457617     1.218534    21.436476    9850.5433 
   86000    1.7978059     14.76909    16.566896   -4.0120428    18.734002  0.047130639  0.038850306    1.1986871     21.41389    9819.4402 
   87000     1.802022    14.782951    16.584973   -3.9985025     18.73357   0.04788392   0.10977965    1.2014982    21.404749    9806.8705 
   88000    1.7909869    14.772777    16.563764   -4.0068691    18.729481  0.050165185  -0.12748965    1.1941405    21.404057    9805.9192 
   89000    1.7850349    14.739432    16.524467   -4.0325296    18.720147   0.05181446  0.055603275     1.190172    21.367053    9755.1481 
   90000    1.8024495    14.760445    16.562894   -4.0092113    18.720002  0.049653808  -0.20063329    1.2017832    21.423231    9832.2958 
   91000    1.8060195    14.796516    16.602535   -3.9775548    18.724514  0.049557215 -0.0073580535    1.2041635    21.428789    9839.9504 
   92000     1.792825    14.794019    16.586844     -3.98772    18.735868  0.045871292   0.12836197    1.1953661    21.421881    9830.4367 
   93000     1.801522    14.768212    16.569734   -4.0222221    18.746242  0.044192367  0.037877598    1.2011648    21.396265     9795.214 
   94000    1.7721152    14.762465     16.53458   -4.0078697    18.722284  0.048050472  0.077968207    1.1815579    21.392109    9789.5073 
   95000     1.795964    14.790196     16.58616   -3.9746067     18.71829  0.046513322 -0.063480833     1.197459    21.427682    9838.4252 
   96000    1.7906071    14.808795    16.599402   -3.9838991    18.745756  0.046937851  -0.16617864    1.1938873    21.422677    9831.5322 
   97000    1.7898047    14.752649    16.542454   -4.0114342    18.715718  0.048365512   -0.1767828    1.1933523    21.394881    9793.3132 
   98000    1.7829548    14.754397    16.537352   -4.0286178    18.735948  0.047067063   0.22450431    1.1887852    21.381618    9775.1108 
   99000    1.7901801    14.806807    16.596987   -3.9800178      18.7352  0.051625503  0.020698567    1.1936026    21.437471     9851.915 
  100000    1.8088533    14.774483    16.583337   -4.0039598    18.730959  0.047483694  -0.18535807    1.2060529    21.419023    9826.5029 
  101000    1.7997472    14.744849    16.544596   -4.0224374    18.721278  0.046008131 0.0083381126    1.1999814    21.384358    9778.8691 
  102000    1.8001447    14.768459    16.568604   -4.0072283    18.726279  0.049408774 -0.046349431    1.2002465    21.398697    9798.5534 
  103000    1.8278202    14.811569    16.639389   -3.9676319    18.731733  0.047467265  -0.15930439    1.2186991    21.481421     9912.633 
  104000    1.8258921    14.792481    16.618373   -3.9795777    18.728615  0.043443534 -0.053432336    1.2174136    21.439973     9855.365 
  105000    1.7898246    14.785382    16.575206   -4.0016628    18.739137  0.047907202   0.12389334    1.1933656    21.393202    9791.0073 
  106000    1.7879011    14.755422    16.543323   -4.0185343    18.727948  0.046008341  -0.16184571     1.192083    21.401038    9801.7697 
  107000    1.8153651    14.788917    16.604282    -3.983142      18.7239  0.048159448  0.046022327    1.2103947    21.400309    9800.7682 
  108000    1.7905972     14.78404    16.574638   -3.9799598    18.716854   0.04714616  -0.19410094    1.1938807    21.446067    9863.7714 
  109000    1.8274434     14.79974    16.627183   -3.9914064    18.742048  0.049098492  0.076148606    1.2184479    21.418317    9825.5303 
  110000    1.7619138    14.820834    16.582748   -3.9581743    18.732699  0.046309562 -0.047871611    1.1747561    21.454699    9875.6858 
  111000     1.800068    14.764481    16.564549    -4.005416    18.719285  0.050611744 0.0013487473    1.2001953     21.40587    9808.4114 
  112000    1.8216274    14.782981    16.604608   -3.9994012    18.736186  0.046195996  0.072582829    1.2145701    21.419477    9827.1276 
  113000    1.7913939    14.790625    16.582019   -3.9670789    18.711761   0.04594267 -0.090361451    1.1944119    21.457696    9879.8259 
  114000    1.7915138     14.73724    16.528754   -4.0255328     18.71998  0.042792898  0.031301833    1.1944919    21.361884    9748.0698 
  115000     1.777812     14.74416    16.521972     -4.03485    18.734473  0.044537367    0.1200493    1.1853561    21.379443    9772.1289 
  116000    1.7944679    14.769776    16.564244    -4.000471    18.720985  0.049261828 -0.042514123    1.1964615    21.410835    9815.2369 
  117000    1.8005359    14.790338    16.590874   -3.9853274    18.727497  0.048168347   0.21688573    1.2005073    21.418051    9825.1645 
  118000    1.8025635    14.789734    16.592298   -3.9908621    18.731872  0.048724344 -0.003322174    1.2018593    21.425344    9835.2049 
  119000    1.7998188    14.767572    16.567391   -4.0055872    18.726624  0.046535569   0.12001001    1.2000292    21.414759    9820.6349 
  120000     1.810969    14.757116    16.568085   -4.0122067    18.718914  0.050408772  0.074037319    1.2074636    21.404371    9806.3503 
  121000    1.7964892    14.784557    16.581046    -3.993857    18.730706  0.047707732 -0.019929931    1.1978092    21.429195     9840.509 
  122000    1.8086531    14.785856    16.594509   -4.0001785    18.742439  0.043595354  -0.04216549    1.2059195    21.400459    9800.9753 
  123000    1.7769322    14.761921    16.538853   -4.0119551    18.728832  0.045043992  -0.11662696    1.1847696    21.408882     9812.552 
  124000    1.7993935    14.771482    16.570876   -4.0075043    18.734713  0.044273389   0.11597066    1.1997457    21.407568    9810.7447 
  125000    1.8187201    14.770206    16.588926   -3.9961726    18.726132  0.040246762 -0.012456558    1.2126316    21.425004    9834.7365 
  126000    1.8107668    14.791745    16.602512   -3.9864106    18.731236   0.04691981   0.14057934    1.2073288    21.427421    9838.0655 
  127000    1.8097729    14.786618    16.596391   -3.9984014    18.736033  0.048986018 -0.069868967    1.2066661    21.434657     9848.036 
  128000    1.8015921    14.760738     16.56233   -4.0074598    18.720556  0.047642203  0.010238384    1.2012115    21.403346    9804.9417 
  129000    1.7959311    14.772287    16.568218   -4.0030763    18.727541  0.047822417 -0.049342886    1.1974371    21.406854    9809.7635 
  130000    1.8200439     14.79058    16.610624   -3.9790855    18.722332  0.047333597 -0.071562531    1.2135143    21.432402    9844.9285 
  131000    1.8059362    14.789333    16.595269   -3.9845467    18.728149  0.045731277   0.11743653     1.204108    21.430545     9842.369 
  132000    1.7999507    14.737261    16.537212   -4.0260519     18.71841  0.044902753  0.049205234    1.2001172    21.376559    9768.1738 
  133000    1.8034694    14.777176    16.580645   -4.0090829    18.743409  0.042850037 -0.095263092    1.2024632    21.407005    9809.9707 
  134000    1.7867018    14.794619    16.581321   -3.9834926    18.734894  0.043216968  -0.10794501    1.1912834    21.432891    9845.6012 
  135000    1.8215688    14.776176    16.597744   -4.0019743    18.732012  0.046138207  0.087494245     1.214531    21.381657    9775.1647 
  136000    1.7761746    14.772899    16.549073   -4.0068166    18.736127  0.043588302  -0.08179123    1.1842645    21.428173    9839.1012 
  137000    1.7862615    14.798264    16.584526   -3.9862246    18.734814  0.049675359  0.066841903    1.1909898    21.410838    9815.2416 
  138000    1.8020528     14.80621    16.608263   -3.9690661    18.724655  0.050620583  0.068353134    1.2015187    21.437389    9851.8023 
  139000    1.7965288    14.802382     16.59891   -3.9757137    18.725897  0.052198378 -0.033213993    1.1978356    21.448042    9866.4962 
  140000    1.8139206    14.762131    16.576051   -3.9962505    18.707914   0.05046782  -0.18225566    1.2094315    21.441984    9858.1387 
  141000    1.8271239    14.798092    16.625216   -3.9713212    18.723812  0.045600554   0.26719268    1.2182349    21.435541    9849.2539 
  142000    1.7645954    14.796989    16.561585   -3.9744488    18.725638  0.045799795    0.0227092     1.176544    21.451135    9870.7655 
  143000    1.8264791    14.765397    16.591876   -4.0242042    18.741058  0.048543634   0.16545557     1.217805    21.372366    9762.4274 
  144000    1.7743027    14.793038    16.567341   -3.9837852    18.730281   0.04654191 -0.0043979534    1.1830163    21.447269    9865.4297 
  145000    1.8341897    14.744628    16.578818    -4.026209    18.723119  0.047718242 0.0015324342     1.222946    21.378038    9770.2016 
  146000    1.7864989    14.749279    16.535777   -4.0100229    18.718012  0.041289496  0.044287329    1.1911482    21.408492    9812.0152 
  147000    1.7937769    14.787036    16.580813   -3.9963535    18.732632  0.050756911 -0.085706762    1.1960007    21.413686    9819.1589 
  148000    1.7824113    14.792461    16.574873   -4.0030963    18.750459  0.045098904   0.11174504    1.1884227    21.391519    9788.6972 
  149000    1.7900654    14.741827    16.531892   -4.0209214    18.720431   0.04231645  -0.23479072    1.1935261    21.393323    9791.1738 
  150000    1.8043945    14.746493    16.550887   -4.0098158    18.712946  0.043362438  0.092305827      1.20308    21.398257    9797.9495 
  151000    1.8099534    14.801807     16.61176    -3.971722    18.731207  0.042321908 -0.0054970526    1.2067864    21.458915    9881.5085 
  152000      1.81302    14.763153    16.576173    -3.998824     18.71918  0.042797229 -0.062512029    1.2088311    21.411394    9816.0061 
  153000    1.7743976    14.772982     16.54738   -4.0043355     18.73269  0.044628386  -0.07216552    1.1830796    21.431907    9844.2454 
  154000    1.8219905    14.771346    16.593336   -4.0040947    18.727339  0.048101305 -0.053191789    1.2148122    21.382383      9776.16 
  155000    1.7908357     14.78901    16.579845    -3.982051    18.720891  0.050169931 -0.012642465    1.1940397    21.449633     9868.692 
  156000     1.793601    14.827961    16.621562   -3.9506984    18.731918  0.046741321   0.13268735    1.1958835    21.469776    9896.5214 
  157000    1.8098943     14.79047    16.600364   -3.9947506    18.740748  0.044472113  0.059115539    1.2067471    21.416253    9822.6906 
  158000    1.7968402    14.756872    16.553712   -4.0107531    18.723064  0.044560854  0.076485872    1.1980432    21.390401     9787.162 
  159000    1.8015684    14.786568    16.588137   -3.9933567     18.73412  0.045804781  -0.18097142    1.2011958    21.441728    9857.7854 
  160000    1.8045548    14.781454    16.586009   -3.9875506    18.725325  0.043679948   0.12326163    1.2031869    21.431023    9843.0271 
  161000    1.8059222    14.759646    16.565569   -4.0116681    18.726903  0.044411307  -0.23997357    1.2040987    21.407505     9810.658 
  162000     1.801844    14.737493    16.539337   -4.0476384    18.741783  0.043347953 -0.085960377    1.2013795    21.360285    9745.8815 
  163000    1.7973622    14.758569    16.555931   -4.0223785    18.737665   0.04328261  0.042442565    1.1983912    21.376274    9767.7828 
  164000    1.7812524    14.799575    16.580828   -3.9706516    18.728221  0.042006155   0.13368097      1.18765    21.458128    9880.4215 
  165000    1.8208515    14.822762    16.643613    -3.964457    18.741369  0.045849416 0.0018429165    1.2140528    21.445633     9863.172 
  166000    1.8160842    14.791688    16.607772   -3.9810556    18.727407  0.045336227 -0.040267829    1.2108742    21.441162    9857.0046 
  167000    1.8049664    14.748139    16.553105   -4.0149348    18.717971  0.045102864   0.20615812    1.2034614    21.380647    9773.7799 
  168000    1.7931945     14.78176    16.574955   -3.9935955    18.730346   0.04500954  0.066088046    1.1956124    21.422237    9830.9274 
  169000    1.7921475    14.775503    16.567651   -4.0055662    18.730186  0.050883472 0.0011762467    1.1949144    21.390936    9787.8965 
  170000    1.7822552    14.786661    16.568916   -3.9860142    18.722687  0.049988482  0.026973936    1.1883187    21.432591     9845.189 
  171000    1.7969783    14.803154    16.600133   -3.9810185    18.732667  0.051506108   0.02941796    1.1981353    21.451614    9871.4269 
  172000    1.8158632    14.780127    16.595991   -4.0001278    18.731603  0.048652236  -0.16066299    1.2107268    21.444321    9861.3618 
  173000    1.7919818    14.752714    16.544695   -4.0178265    18.722756  0.047783903 -0.045313233    1.1948039    21.406189    9808.8497 
  174000    1.8234131     14.77558    16.598993   -4.0159552    18.738947  0.052588639  -0.06528925    1.2157607    21.402909    9804.3408 
  175000    1.8114403    14.787176    16.598617   -3.9904585    18.731833  0.045802246   0.04398122    1.2077778    21.435306    9848.9302 
  176000    1.7899162    14.760977    16.550894   -4.0195713    18.731259  0.049289743  0.034283029    1.1934267    21.394975     9793.442 
  177000    1.7832897    14.786074    16.569364   -3.9920961    18.732023  0.046146575 -0.025296278    1.1890084    21.427794    9838.5786 
  178000    1.8253104    14.774924    16.600235   -3.9942233    18.722084  0.047063365 -0.090755993    1.2170257    21.428943    9840.1616 
  179000    1.7824885    14.789764    16.572252   -3.9806951    18.724959  0.045500303 -0.020948994    1.1884742    21.432168    9844.6059 
  180000    1.8111718    14.806885    16.618056   -3.9975642    18.753322  0.051126524  -0.06955752    1.2075988    21.414757     9820.633 
  181000    1.8050287    14.810188    16.615216    -3.974003    18.734796  0.049394514 -0.027349851    1.2035029    21.467838     9893.841 
  182000    1.7974523    14.772365    16.569817   -4.0063585    18.731573  0.047149897  -0.10726373    1.1984513    21.405599    9808.0384 
  183000    1.8029063    14.745046    16.547952   -4.0177629    18.714292  0.048516908  0.036850754    1.2020878    21.380126    9773.0651 
  184000    1.8081518    14.759154    16.567306   -4.0080363    18.722647  0.044542578  0.077661119    1.2055852     21.40823    9811.6557 
  185000    1.8010039    14.811669    16.612673   -3.9676135    18.728774  0.050507733   0.18609979    1.2008194    21.439292    9854.4262 
  186000    1.7874882      14.7694    16.556888   -4.0020369    18.723438  0.047998681 -0.058172027    1.1918078    21.412585     9817.645 
  187000    1.7817159    14.777368    16.559084   -3.9980055    18.731662  0.043711705 -0.061364365    1.1879591    21.417852     9824.891 
  188000    1.8232763    14.769039    16.592315    -4.001498    18.725622  0.044914741   -0.1971264    1.2156695    21.412049    9816.9077 
  189000    1.7811196    14.795655    16.576775    -3.986121     18.73391  0.047865981   0.19340403    1.1875615    21.428306    9839.2843 
  190000    1.8073449    14.782329    16.589674   -4.0004488     18.73743  0.045347621 -0.052400397    1.2050472    21.395527    9794.1993 
  191000    1.8033313    14.775554    16.578886   -3.9856669    18.713565  0.047656055  0.045677489    1.2023712    21.428619    9839.7157 
  192000    1.8230378    14.770325    16.593363   -4.0076757    18.728804  0.049196754 -0.063554594    1.2155105    21.411099    9815.6008 
  193000    1.7704399    14.808912    16.579352   -3.9871292    18.748159  0.047881727  -0.14114264    1.1804408    21.451415     9871.152 
  194000     1.772732    14.794889    16.567621   -3.9842162    18.727394  0.051711514  0.010784895    1.1819691    21.409979    9814.0608 
  195000    1.8059424    14.784412    16.590355   -3.9820098    18.715214  0.051207993   0.20804902    1.2041121    21.395347    9793.9522 
  196000     1.786627    14.789232    16.575859    -3.980824     18.72208  0.047976043   -0.1800786    1.1912336    21.463365     9887.658 
  197000    1.8134712    14.772418    16.585889   -4.0037222    18.722188  0.053952521 -0.017256864    1.2091319    21.399077    9799.0757 
  198000    1.7872242    14.777897    16.565121   -4.0035312    18.728228  0.053199874 -0.012813634    1.1916317    21.436041     9849.943 
  199000    1.7997764    14.755364     16.55514   -4.0213072     18.72594  0.050731337 0.0018141002     1.200001    21.383443    9777.6145 
  200000    1.7906209    14.759766    16.550387   -4.0200969    18.731549  0.048314136    0.1201151    1.1938965    21.395395     9794.019 
  201000    1.8226975    14.791497    16.614195   -3.9941023    18.736174  0.049425855  0.066070859    1.2152835    21.420834    9828.9947 
  202000     1.790132      14.7957    16.585832   -3.9749985    18.723033  0.047665632 -0.058581132    1.1935705     21.44246    9858.7942 
  203000    1.7905157    14.735022    16.525538   -4.0323138    18.716638  0.050697665 -0.023313642    1.1938264    21.387376    9783.0105 
  204000    1.7979138    14.754999    16.552913   -4.0153142    18.724363  0.045950275   0.12527306     1.198759    21.402512     9803.795 
  205000    1.8074218    14.775595    16.583017    -4.000174    18.725645  0.050123561   0.12693178    1.2050985    21.415485    9821.6339 
  206000    1.8128832    14.799332    16.612215   -3.9772477    18.724619  0.051961279 -0.058791462    1.2087399    21.426568      9836.89 
  207000    1.7918199    14.782054    16.573874   -3.9952804    18.726546  0.050789215  0.089785117     1.194696    21.415729    9821.9694 
  208000    1.7896605    14.748349     16.53801    -4.026973    18.727612  0.047710239 -0.028016178    1.1932561    21.378033    9770.1944 
  209000    1.7858999    14.747531    16.533431   -4.0403323    18.738796  0.049066889  0.055514564    1.1907488    21.366272    9754.0791 
  210000     1.818343    14.746666    16.565009   -4.0383725    18.732776  0.052262157 -0.049304778    1.2123802    21.373785     9764.372 
  211000    1.7645865    14.790519    16.555105    -3.987365    18.731887  0.045996853  0.076925931    1.1765381    21.426522     9836.827 
  212000    1.8160712    14.778713    16.594784   -4.0105489    18.739196  0.050065746 -0.072131532    1.2108655    21.395019     9793.502 
  213000    1.7903146     14.77546    16.565775   -3.9901289    18.719166  0.046423018   0.02139069    1.1936923    21.417981    9825.0681 
  214000    1.8117532    14.805929    16.617682   -3.9780238    18.737145   0.04680715 -0.0050109852    1.2079865    21.426941    9837.4048 
  215000    1.8020536    14.806547    16.608601   -3.9645566    18.719127  0.051976715  -0.26771373    1.2015192    21.479342    9909.7551 
  216000    1.8091958    14.728707    16.537903   -4.0521602    18.731611  0.049255929  -0.10315964    1.2062813    21.340141    9718.3351 
  217000    1.7943571    14.735737    16.530094   -4.0246101    18.713639  0.046708372 -0.059233964    1.1963876    21.380985    9774.2432 
  218000    1.8095168    14.776391    16.585907   -3.9964208    18.724114  0.048697326 -0.019123244    1.2064953     21.41377    9819.2741 
  219000    1.8034213     14.77749    16.580911   -4.0022722    18.733001  0.046760858 -0.060962459    1.2024312    21.424996    9834.7257 
  220000    1.8205887     14.77232    16.592909   -4.0022146    18.722605  0.051929695   0.02947275    1.2138775    21.419414    9827.0403 
  221000    1.7924612    14.785412    16.577874   -3.9966417    18.732862  0.049191799  -0.10063963    1.1951235    21.420856    9829.0251 
  222000    1.7775129    14.778307     16.55582   -4.0070889    18.736269  0.049127271 0.00067910136    1.1851567    21.430244    9841.9548 
  223000    1.8138627    14.789298    16.603161   -3.9862211    18.725463  0.050056248   0.14059578     1.209393    21.428128    9839.0398 
  224000    1.8173303    14.777319    16.594649   -3.9845838    18.714332  0.047570787  -0.13428293     1.211705    21.463357    9887.6473 
  225000    1.8230087    14.804714    16.627723   -3.9944186    18.745263  0.053869424  0.093288699    1.2154911    21.415926    9822.2409 
  226000    1.8063188     14.78168    16.587999   -3.9901503    18.720896  0.050934503   0.11721129    1.2043631     21.44372     9860.533 
  227000    1.8059235    14.765564    16.571488   -4.0008613    18.717721  0.048705266 0.0062493999    1.2040995    21.395506    9794.1717 
  228000     1.788216    14.763112    16.551327    -4.022745    18.736165  0.049691694  0.066962174     1.192293    21.388925    9785.1361 
  229000    1.8097861    14.800968    16.610754   -3.9745732    18.726404  0.049136591 -0.015274216    1.2066749    21.450447    9869.8154 
  230000    1.8217402    14.805727    16.627468   -3.9783704    18.737948  0.046149957 -0.076146005    1.2146453    21.444919    9862.1874 
  231000    1.7993036     14.77501    16.574314   -3.9946014    18.724257  0.045354484  0.063147074    1.1996857    21.402583    9803.8927 
  232000    1.7927533    14.759699    16.552452   -3.9947648     18.70818  0.046283516  -0.01024144    1.1953183    21.432929    9845.6537 
  233000    1.8243317    14.774574    16.598905   -4.0004114    18.728275  0.046709588    0.1066465    1.2163732    21.402499    9803.7778 
  234000    1.7722283    14.791013    16.563241   -3.9925502    18.735311  0.048251708 -0.0060653754    1.1816333    21.426768    9837.1656 
  235000    1.8076471    14.767895    16.575542   -4.0073584    18.729302  0.045951694  -0.10344594    1.2052487    21.400302    9800.7589 
  236000    1.7992062    14.759348    16.558554   -4.0111727    18.720958   0.04956252  -0.11752197    1.1996207    21.411075    9815.5677 
  237000    1.8007053    14.765562    16.566268    -4.002298    18.715416  0.052444648 -0.0027593543    1.2006203    21.406002    9808.5917 
  238000    1.8077435    14.794434    16.602178   -3.9863244    18.732471   0.04828808  -0.11185842     1.205313    21.450192    9869.4635 
  239000    1.8050373    14.774331    16.579368   -4.0013351    18.727628  0.048038314 -0.088104518    1.2035087    21.418736    9826.1074 
  240000    1.8040414    14.756973    16.561015   -4.0159343    18.724331  0.048576354   0.12800648    1.2028446    21.387912    9783.7456 
  241000    1.8040844    14.797491    16.601576   -3.9812922    18.727885  0.050898416 -0.0017251693    1.2028733    21.440946    9856.7067 
  242000    1.8027989    14.821373    16.624172   -3.9600861    18.731018  0.050441283   0.11631576    1.2020162    21.465171    9890.1541 
  243000    1.8137332    14.756699    16.570432   -4.0196804    18.727103  0.049276499 0.0010170596    1.2093066    21.398781      9798.67 
  244000     1.784476    14.780248    16.564724   -4.0059852    18.733262   0.05297118 -0.026549982    1.1897994    21.403408     9805.027 
  245000    1.8035215     14.78432    16.587841   -3.9880824    18.722723  0.049679156   0.11499114     1.202498    21.402542    9803.8374 
  246000    1.7753783    14.802638    16.578016   -3.9714074    18.726987  0.047058085 -0.095947294    1.1837335    21.459807    9882.7416 
  247000    1.8110622    14.797064    16.608127   -3.9803051    18.728359  0.049010196   0.12145596    1.2075258    21.425892    9835.9593 
  248000    1.7723407    14.805944    16.578284    -3.975146    18.731721  0.049368552   0.13063357    1.1817082    21.457501     9879.556 
  249000    1.8370497    14.752636    16.589686   -4.0266632     18.73286  0.046439157  0.041670385    1.2248529    21.370905    9760.4258 
  250000     1.775478    14.776158    16.551636   -3.9944269    18.721982  0.048602552  0.013880531       1.1838    21.419006    9826.4786 
  251000    1.8196833    14.767794    16.587477   -4.0091723    18.726444  0.050522109  0.053146283    1.2132738    21.393923    9791.9966 
  252000    1.7537945    14.776952    16.530746   -4.0044065    18.733197  0.048161164  -0.19424572    1.1693425    21.410641    9814.9709 
  253000    1.8018204    14.744419    16.546239   -4.0281313     18.72171   0.05083982 -0.089908473    1.2013638    21.370495     9759.863 
  254000    1.8077931    14.761499    16.569292   -4.0052757     18.71658  0.050194371  0.037030736    1.2053461    21.420657    9828.7512 
  255000      1.82819    14.753425    16.581615   -4.0163028    18.721639  0.048088527 0.0082324593    1.2189457     21.38368    9777.9388 
  256000    1.7777627    14.785886    16.563649   -3.9942476    18.727995  0.052138519 -0.012979269    1.1853233    21.443474    9860.1939 
  257000    1.8150066     14.78669    16.601696   -3.9984689    18.736367  0.048791202 -0.026055244    1.2101556    21.430746    9842.6457 
  258000    1.7972017    14.750494    16.547696    -4.026276     18.73121   0.04555974 -0.0070275713    1.1982842    21.381897    9775.4931 
  259000    1.8069565    14.733133    16.540089   -4.0401479    18.722046  0.051235026  -0.10035896    1.2047883    21.370001    9759.1868 
  260000     1.795114    14.800493    16.595607   -3.9801083     18.73225  0.048351719  0.077480752    1.1968923    21.415484    9821.6327 
  261000    1.8277972    14.781032     16.60883   -3.9838714    18.715286  0.049617728 0.0076077572    1.2186838    21.445804    9863.4079 
  262000    1.7966977    14.790296    16.586994   -3.9772724     18.72258  0.044987928   0.13926265    1.1979482    21.448661    9867.3505 
  263000    1.8406475      14.7363    16.576948   -4.0342019    18.723613  0.046889295 -0.052891165    1.2272517    21.381658    9775.1657 
  264000    1.7863737    14.748991    16.535365    -4.020312    18.725442  0.043860488 -0.083336868    1.1910647    21.392634     9790.228 
  265000     1.801781    14.786618    16.588399   -3.9841722     18.72411  0.046680872  -0.10256148    1.2013375    21.436305    9850.3075 
  266000    1.8104425    14.808117    16.618559   -3.9889588    18.750895  0.046180417 -0.0058342018    1.2071125    21.414198    9819.8632 
  267000    1.7847826    14.771963    16.556746    -4.005957    18.730549  0.047370633 -0.027509378    1.1900038    21.423744    9833.0014 
  268000    1.8218948    14.766145     16.58804   -4.0051618    18.720664  0.050642637  -0.13052337    1.2147484    21.392548    9790.1092 
  269000    1.7874267    14.756717    16.544143   -3.9889067    18.700828  0.044795386 -0.093405496    1.1917668    21.435723    9849.5046 
  270000    1.7982675    14.767646    16.565914    -4.012102    18.733183   0.04656515    0.2650461    1.1989949    21.363095    9749.7279 
  271000    1.8145367    14.818397    16.632934   -3.9608161    18.731471  0.047741756   0.05896943    1.2098423    21.466938    9892.5971 
  272000    1.8110767    14.810186    16.621263   -3.9603422    18.722817  0.047711787 -0.046457051    1.2075354    21.461425    9884.9773 
  273000    1.7892493    14.805653    16.594902   -3.9843342    18.742344  0.047643098   0.11653004     1.192982    21.427765    9838.5396 
  274000    1.7940037    14.766648    16.560652   -3.9955197    18.712417  0.049750833   0.05665529     1.196152    21.416971    9823.6786 
  275000    1.7962867    14.776739    16.573026   -4.0062463    18.729887  0.053098354  0.074817663    1.1976742     21.39831    9798.0223 
  276000    1.8147296    14.770457    16.585186   -3.9925337    18.716908  0.046082507  0.029684343     1.209971    21.428007    9838.8722 
  277000    1.7828165    14.768351    16.551167   -3.9971397    18.716723  0.048767301 -0.065212827    1.1886929     21.41225     9817.184 
  278000    1.8146231     14.79951    16.614133   -3.9984217    18.745765  0.052166601  0.092413775       1.2099    21.412772     9817.902 
  279000    1.7883752    14.805154    16.593529     -3.97583    18.733697  0.047286542   0.09234395    1.1923992    21.437985     9852.624 
  280000    1.7726717    14.760922    16.533594   -4.0175863     18.72809  0.050418116 -0.037424228    1.1819289    21.377687     9769.721 
  281000     1.814584     14.72397    16.538554   -4.0337578    18.712357  0.045370706  0.099149298    1.2098739    21.387136    9782.6814 
  282000    1.8097685    14.786478    16.596246   -3.9977475    18.735112  0.049112929  0.096369987    1.2066632    21.422646    9831.4895 
  283000    1.7977966    14.772735    16.570531   -3.9968371    18.726709  0.042863195 -0.0095892969    1.1986809    21.414599    9820.4155 
  284000    1.7812417    14.753091    16.534333   -4.0312062    18.733757  0.050540563 -0.096615334    1.1876429    21.388662    9784.7756 
  285000    1.8215455    14.759705    16.581251   -4.0316742    18.746563  0.044816379 -0.083589884    1.2145155    21.385606    9780.5816 
  286000    1.7803197    14.816054    16.596373   -3.9583964    18.728378  0.046071997  0.030645916    1.1870282     21.43934    9854.4923 
  287000    1.8141152     14.79492    16.609035   -3.9863991    18.732728  0.048590873 -0.032917763    1.2095613    21.446434    9864.2766 
  288000     1.811472    14.763963    16.575435   -3.9974685    18.716517  0.044914972   0.14950067     1.207799    21.411672     9816.389 
  289000    1.7869019    14.781382    16.568284   -3.9860055    18.721357  0.046030686   0.18591993    1.1914169    21.421127    9829.3983 
  290000    1.8289449    14.806248    16.635193   -3.9708784    18.729374  0.047752347  0.046158076     1.219449    21.468637    9894.9456 
  291000    1.8186796      14.8163    16.634979   -3.9508796    18.721488  0.045691129  0.018017437    1.2126046    21.478653    9908.8013 
  292000    1.8073951    14.780469    16.587864   -3.9905558    18.723165  0.047860353   0.10542724    1.2050807    21.429011    9840.2563 
  293000    1.7816649     14.79341    16.575074   -3.9995512    18.746466  0.046494735 -0.085591854    1.1879251    21.415588    9821.7762 
  294000    1.7929275    14.761418    16.554346   -4.0230072    18.735708  0.048717722    0.1350903    1.1954344    21.383076    9777.1111 
  295000    1.7828643    14.777011    16.559875   -4.0059747    18.734375  0.048610849  -0.13085399    1.1887248     21.41511    9821.1184 
  296000    1.7989985    14.793913    16.592911    -3.980535    18.725069  0.049378877  0.063774469    1.1994823    21.420386    9828.3785 
  297000    1.8011484    14.742416    16.543564   -4.0269764    18.723599  0.045793105 -0.052979558    1.2009157    21.395927    9794.7491 
  298000     1.800401     14.72346    16.523861   -4.0471182     18.72391   0.04666789    0.1134245    1.2004174    21.345397    9725.5169 
  299000    1.8040962    14.767679    16.571776   -4.0116925    18.735221  0.044150715  -0.14172824    1.2028812    21.410581    9814.8889 
  300000    1.7989853    14.777267    16.576253   -4.0027097    18.732812  0.047164665  0.020333829    1.1994735    21.414478    9820.2486 
  301000    1.7869693    14.788762    16.575732   -4.0011848      18.7397  0.050247194  -0.10780976    1.1914618    21.410079    9814.1973 
  302000    1.8214366    14.785112    16.606549   -3.9797386    18.716139  0.048712146  0.026587776    1.2144429    21.446095    9863.8089 
  303000     1.787397     14.76358    16.550977    -4.013161     18.72523  0.051510434   0.37377725     1.191747    21.377431    9769.3697 
  304000    1.7767061    14.783599    16.560305   -4.0119814    18.747055  0.048526061   0.11025418    1.1846188    21.396394    9795.3911 
  305000      1.80397    14.801549    16.605519   -3.9722941    18.720029  0.053813398 0.0074480845     1.202797    21.448724    9867.4373 
  306000     1.799901    14.807679     16.60758   -3.9728195    18.728679  0.051819055 -0.038167011     1.200084    21.450508    9869.9002 
  307000    1.8139723     14.75261    16.566582   -4.0125874    18.714704  0.050493035   0.06732202    1.2094661     21.38866    9784.7722 
  308000    1.7853361    14.782088    16.567424   -3.9917711    18.727388  0.046471305   -0.1482271    1.1903729    21.433957    9847.0711 
  309000    1.8005366    14.797053    16.597589   -3.9905263    18.738111  0.049467461  0.037807311    1.2005078    21.421644    9830.1106 
  310000    1.7972763    14.758369    16.555646   -4.0022042    18.713793  0.046780954  -0.19300353     1.198334    21.427347    9837.9635 
  311000    1.8058505    14.768775    16.574626   -4.0024487    18.725273  0.045950376  0.093239221    1.2040508    21.416068    9822.4355 
  312000    1.8065344    14.801195    16.607729   -3.9839903    18.737374  0.047811333  0.081384285    1.2045068    21.441786    9857.8646 
  313000    1.7913077    14.766317    16.557624   -4.0189826    18.736621  0.048677915    -0.013805    1.1943544    21.386475    9781.7743 
  314000    1.7941438    14.741586     16.53573   -4.0224144    18.712485  0.051515666  0.058712211    1.1962454    21.372879    9763.1297 
  315000    1.7817654    14.810046    16.591812   -3.9804368    18.739016  0.051467267   0.03503019    1.1879921     21.42508     9834.841 
  316000    1.8047657    14.771111    16.575877    -4.000506    18.720942  0.050674533   0.11779268    1.2033276    21.400968    9801.6739 
  317000    1.7909799    14.773064    16.564044   -3.9901085    18.710214  0.052958662  -0.11174904    1.1941358    21.417178    9823.9635 
  318000    1.8144638    14.772952    16.587416   -4.0010924    18.727177  0.046867599  -0.20994836    1.2097937    21.416012    9822.3587 
  319000     1.816029    14.763843    16.579872   -4.0113573     18.72617  0.049030688 -0.016724024    1.2108374    21.408333    9811.7967 
  320000    1.7836252    14.785728    16.569354   -4.0041922    18.744223  0.045697774  0.064936572    1.1892321    21.421062    9829.3089 
  321000    1.8183066    14.783458    16.601765   -3.9939963    18.729099  0.048354798   0.13295121     1.212356    21.422655    9831.5021 
  322000    1.7877673    14.815945    16.603713   -3.9689044    18.737162  0.047687998  -0.16855573    1.1919938     21.46113    9884.5698 
  323000    1.7701329    14.780871    16.551004   -3.9935488     18.72278  0.051640506   0.14900777    1.1802361    21.389979    9786.5826 
  324000    1.8062533    14.795858    16.602111   -3.9822777    18.729132  0.049003721   0.24903973    1.2043194    21.409651    9813.6088 
  325000    1.8067274    14.810967    16.617695    -3.969284    18.731769  0.048482488 -0.057605644    1.2046355     21.44992    9869.0884 
  326000    1.8106652    14.744396    16.555061   -4.0260697     18.72524  0.045225034 -0.056893681     1.207261    21.395416    9794.0474 
  327000    1.7929727    14.746008    16.538981   -4.0247576    18.720722  0.050043895 -0.011564061    1.1954646    21.379013    9771.5383 
  328000    1.8057564    14.784124     16.58988   -4.0043669    18.739115  0.049375989  -0.18834241    1.2039881    21.424339    9833.8206 
  329000    1.7941373     14.78742    16.581557   -3.9949247    18.740166    0.0421787  0.081006828    1.1962411     21.42535    9835.2127 
  330000    1.8037864    14.757894     16.56168   -4.0184925    18.729084  0.047302245 -0.092289674    1.2026746     21.39057    9787.3934 
  331000    1.8226669    14.789199    16.611866   -3.9852462    18.726403  0.048042351  -0.20914699    1.2152632    21.442732    9859.1704 
  332000    1.8018766     14.80525    16.607127   -3.9721899     18.72692  0.050520117 -0.075829914    1.2014012    21.459503    9882.3214 
  333000     1.815257    14.734298    16.549555    -4.031364    18.718874  0.046787918 -0.0037651703    1.2103226    21.379621    9772.3728 
  334000     1.799168    14.753217    16.552385   -4.0219114    18.725955  0.049173243  0.063118905    1.1995953    21.382117    9775.7959 
  335000    1.8138648    14.795217    16.609082   -3.9800584    18.729456  0.045819325  -0.21772557    1.2093944    21.435241    9848.8412 
  336000    1.8090221    14.823263    16.632285   -3.9646872    18.742052  0.045898594   0.01480931    1.2061655    21.475914    9905.0109 
  337000    1.8027813    14.772506    16.575288    -4.007074    18.730393   0.04918701  -0.05461324    1.2020045    21.405063    9807.3019 
  338000    1.8159628    14.747288    16.563251   -4.0006051    18.699431  0.048461768 -0.038563995    1.2107932    21.410756    9815.1282 
  339000    1.8224633    14.797139    16.619602   -3.9864745    18.736348  0.047265407  0.070135227    1.2151274    21.417349    9824.1994 
  340000    1.7839863    14.785945    16.569931   -3.9817858    18.721994  0.045736641 -0.017240426    1.1894729    21.439406    9854.5835 
  341000    1.7962236    14.772593    16.568816   -3.9990995    18.724416  0.047276753  0.058652373    1.1976321    21.401925    9802.9886 
  342000    1.7918143    14.760504    16.552318    -4.013278     18.72685  0.046931608   0.12820344    1.1946922    21.396771    9795.9086 
  343000    1.8017458    14.754141    16.555886   -4.0297669    18.731562  0.052345111  -0.23605085     1.201314    21.378079     9770.258 
  344000    1.7914527    14.777751    16.569204   -4.0094282    18.738902  0.048278073 -0.048966416    1.1944511    21.395965    9794.8014 
  345000    1.7730678    14.735359    16.508427   -4.0342023    18.724259  0.045302228 -0.036225152     1.182193    21.372266    9762.2907 
  346000    1.7846212    14.731898    16.516519   -4.0472738    18.731217  0.047955246 -0.038203633    1.1898962    21.360716    9746.4709 
  347000    1.7949815    14.783649     16.57863   -3.9884304    18.725201  0.046878276 -0.0008470369     1.196804    21.426572    9836.8966 
  348000    1.7952943    14.793174    16.588468   -3.9757365    18.723382  0.045527759   0.02081912    1.1970125     21.42821    9839.1524 
  349000    1.8053807    14.759622    16.565003   -4.0139157    18.724426  0.049111802  -0.14698637    1.2037376    21.418033    9825.1395 
  350000    1.8064154    14.795394    16.601809   -3.9821619    18.735035  0.042520958 -0.016980332    1.2044275    21.415046    9821.0306 
  351000    1.7983287    14.769126    16.567454   -4.0012222    18.722486  0.047861426  -0.15613692    1.1990357    21.439066    9854.1144 
  352000    1.8287081    14.740038    16.568746   -4.0368851    18.726039  0.050883876   0.22960812    1.2192912    21.376881    9768.6154 
  353000    1.7932628     14.77018    16.563443    -4.004541    18.729261  0.045460005   0.10737224     1.195658    21.416608    9823.1797 
  354000    1.8105702    14.793674    16.604244   -3.9887748     18.73396   0.04848818  0.024153815    1.2071977     21.43084    9842.7751 
  355000     1.803829     14.79456    16.598389    -3.983826    18.726773  0.051612715  -0.15830476     1.202703    21.438049    9852.7122 
  356000    1.7646009    14.779296    16.543897   -3.9960565    18.727907  0.047445946 -0.0026264488    1.1765477    21.427103    9837.6273 
  357000    1.8122139    14.766026     16.57824   -3.9957746    18.716675  0.045124993 -0.036389475    1.2082936    21.416748     9823.372 
  358000    1.7824461    14.792607    16.575053    -3.989058    18.737112  0.044553093 0.0012124106     1.188446    21.433086    9845.8711 
  359000    1.7711173    14.754487    16.525604   -4.0288591    18.733508  0.049838188 -0.091220416    1.1808925    21.386222    9781.4265 
  360000    1.7900767    14.769615    16.559692   -4.0053379    18.726691  0.048262027   0.13653773    1.1935337    21.397152    9796.4318 
  361000    1.7914988     14.80503    16.596529   -3.9690013    18.725276  0.048755093  -0.19075936    1.1944818    21.471857     9899.399 
  362000    1.8167166    14.814487    16.631203    -3.966501    18.734953  0.046034278  0.078166642    1.2112958    21.442488    9858.8338 
  363000    1.8054033    14.766261    16.571665   -4.0014699    18.719788   0.04794327 -0.010599978    1.2037527    21.387292     9782.895 
  364000    1.7838084    14.777788    16.561596   -3.9838481    18.716243  0.045393053  -0.27098249    1.1893543    21.453743    9874.3664 
  365000    1.8167267    14.781592    16.598318   -3.9999302    18.731842  0.049680082  0.062927118    1.2113025    21.391836     9789.132 
  366000    1.8009659    14.758101    16.559067   -4.0132145    18.723468  0.047847199  -0.11492972    1.2007941    21.401604    9802.5473 
  367000    1.8067532    14.772558    16.579311   -4.0059279    18.733683  0.044803222  -0.08836057    1.2046527    21.420974    9829.1877 
  368000    1.8061511    14.829099     16.63525   -3.9616133     18.74292  0.047792364  -0.12833536    1.2042513    21.446592    9864.4951 
  369000    1.8039235    14.769857     16.57378   -4.0077961    18.729577  0.048076445  0.011834304     1.202766    21.406354    9809.0757 
  370000     1.798386    14.763734     16.56212   -4.0027594    18.717222   0.04927133  -0.12646592    1.1990739    21.418948    9826.3995 
  371000    1.7844029    14.838776    16.623179    -3.962541    18.753028  0.048289372  0.040219575    1.1897507     21.45343    9873.9344 
  372000    1.7932672    14.798789    16.592056   -3.9901723    18.738988  0.049972679 -0.082152243    1.1956609    21.436539    9850.6297 
  373000    1.7898543    14.786003    16.575857   -3.9981669    18.735647   0.04852246 -0.00031100697    1.1933854    21.422621    9831.4553 
  374000    1.8218793    14.769062    16.590941    -4.003611    18.721454  0.051218906  0.084274121     1.214738    21.410987    9815.4472 
  375000     1.778723     14.75735    16.536073   -4.0118207    18.721114  0.048057017 -0.044229119    1.1859636    21.409552    9813.4725 
  376000     1.829466    14.729402    16.558868   -4.0487412     18.72698  0.051162662  0.051670043    1.2197965    21.346645     9727.223 
  377000    1.7934782    14.793273    16.586752   -3.9868846    18.732911   0.04724681 -0.069598248    1.1958016    21.440811    9856.5202 
  378000    1.8171342    14.799048    16.616182   -3.9677273    18.714378  0.052397061 -0.035206022    1.2115742    21.455877    9877.3131 
  379000    1.8219205    14.775615    16.597536   -3.9952702    18.720873  0.050012956  0.080087252    1.2147655    21.432625    9845.2351 
  380000    1.7865988    14.790646    16.577244   -3.9889055    18.733398  0.046153498  0.079167946    1.1912148    21.430897    9842.8541 
  381000    1.7961847    14.775257    16.571442   -3.9984029    18.724961  0.048698892   0.17769549    1.1976061    21.428288    9839.2598 
  382000    1.8110562    14.805974     16.61703   -3.9720177    18.731391  0.046600399  -0.15877615    1.2075217    21.442494    9858.8416 
  383000    1.7875276    14.785497    16.573025   -3.9973393     18.73654  0.046296614  0.043749955    1.1918341    21.431309    9843.4223 
  384000    1.8173187    14.756865    16.574184   -4.0124606    18.715301  0.054024459  0.055260348    1.2116973    21.396224     9795.157 
  385000    1.8039627     14.80309    16.607053   -3.9757527    18.730064  0.048779032   0.02041043    1.2027922    21.455062     9876.188 
  386000     1.832315    14.783123    16.615438   -3.9885485    18.729949  0.041722625  0.039122661     1.221696    21.425034    9834.7781 
  387000    1.7888022    14.772255    16.561057   -3.9978655    18.720641  0.049478885    0.1040306    1.1926839     21.41555    9821.7235 
  388000    1.8426557    14.754442    16.597098   -4.0146447    18.727899  0.041187383 -0.062103507    1.2285907     21.40763    9810.8306 
  389000    1.7652254     14.79842    16.563645   -3.9878555    18.737055  0.049220941     -0.18624     1.176964    21.451969    9871.9163 
  390000     1.804976    14.759673    16.564649    -4.023937    18.735658  0.047952313    0.1096171    1.2034678    21.358961    9744.0697 
  391000     1.806325    14.803774    16.610099   -3.9775143    18.730084  0.051203799  -0.02071181    1.2043672    21.458337     9880.711 
  392000    1.8108372     14.82059    16.631427   -3.9559354    18.728133  0.048392528 0.0070478463    1.2073757    21.490183    9924.7675 
  393000    1.8034829    14.771336    16.574819   -3.9958986    18.718509  0.048725422   0.14660112    1.2024723    21.419815    9827.5925 
  394000    1.8077306    14.762516    16.570246   -4.0142327    18.723522  0.053225948  -0.11556521    1.2053044    21.407147    9810.1667 
  395000    1.7643236    14.754703    16.519027   -4.0204383    18.726412  0.048729986   0.18689852    1.1763628    21.390717     9787.596 
  396000    1.7976257    14.772901    16.570526    -4.011377    18.736032  0.048245571   0.13359865    1.1985669    21.385805    9780.8551 
  397000     1.782876    14.805816    16.588692    -3.975521    18.732672  0.048664697   0.14440943    1.1887326     21.44214    9858.3537 
  398000    1.8105518     14.77297    16.583521   -4.0105142    18.732542    0.0509415 -0.030333711    1.2071854    21.422719    9831.5902 
  399000    1.8021396    14.747043    16.549183   -4.0344475    18.731929  0.049562087   0.17862979    1.2015766    21.360558    9746.2551 
  400000    1.7696937    14.773543    16.543237   -3.9932594    18.719878   0.04692478  0.018502978    1.1799433    21.427936    9838.7752 
  401000    1.8123708     14.79077    16.603141   -3.9850212     18.72541  0.050381419 -0.078993681    1.2083982    21.433188    9846.0105 
  402000    1.7913578    14.781168    16.572525   -3.9943547    18.726627  0.048895609 -0.085543821    1.1943879    21.430858    9842.7998 
  403000    1.7880791    14.722756    16.510835   -4.0389838    18.715355  0.046384892  0.044028708    1.1922018    21.369054    9757.8888 
  404000    1.7863794    14.737935    16.524314   -4.0305694    18.722191  0.046313062 -0.043623868    1.1910685     21.38057    9773.6733 
  405000    1.8094146    14.756208    16.565623   -4.0241115    18.732302  0.048018304 0.0095441312    1.2064272    21.374345    9765.1388 
  406000     1.760922    14.778753    16.539675   -4.0009494    18.728081  0.051621591 -0.086471121    1.1740948    21.416514    9823.0502 
  407000    1.8476037    14.743914    16.591518   -4.0296501     18.72438  0.049183929   0.14198996    1.2318898    21.382618    9776.4823 
  408000    1.7832548    14.774692    16.557947   -3.9978271    18.726375  0.046144069 -0.068345759    1.1889851    21.415491    9821.6425 
  409000    1.7996682    14.768216    16.567884   -4.0076838    18.727257  0.048643143 -0.014351798    1.1999288    21.381852    9775.4317 
  410000    1.8185956      14.7829    16.601496   -3.9903755    18.727855  0.045420943 -0.078889551    1.2125486    21.442755    9859.2018 
  411000    1.8011445    14.809803    16.610948   -3.9662647    18.726929  0.049138583  0.017015838    1.2009131    21.443298    9859.9501 
  412000    1.7813004    14.779851    16.561151    -3.988492    18.717837  0.050505746  0.051492202    1.1876821     21.42232    9831.0408 
  413000    1.8241992    14.785232    16.609431   -3.9928515    18.729226   0.04885718 0.00095094638    1.2162848    21.425551    9835.4895 
  414000    1.8181676    14.807491    16.625659   -3.9817294    18.739412  0.049808352  -0.10912713    1.2122633    21.457844    9880.0291 
  415000    1.8143787    14.782411    16.596789   -3.9994989     18.73457  0.047339844  0.029748929     1.209737    21.416373    9822.8558 
  416000    1.7969849    14.760494    16.557478   -4.0129057    18.728408  0.044991597 -0.028452665    1.1981397    21.399727    9799.9683 
  417000     1.769711    14.732201    16.501912   -4.0383493    18.723453  0.047097007 -0.085282438    1.1799549    21.360896    9746.7182 
  418000    1.8024236    14.745575    16.547998   -4.0287813    18.726875  0.047480674   0.17291615    1.2017659    21.371774    9761.6166 
  419000    1.8085265    14.769297    16.577824   -4.0045715    18.725355  0.048514086  0.059725806    1.2058351    21.397273    9796.5985 
  420000    1.7758068    14.790798    16.566605    -3.983457    18.727451  0.046803499 -0.078301701    1.1840192    21.443733    9860.5509 
  421000    1.8095546    14.798051    16.607605   -3.9777865    18.729101  0.046736531   0.14100336    1.2065205    21.411906    9816.7105 
  422000    1.7816695    14.794215    16.575885   -3.9787129     18.73031  0.042617941  -0.13936123    1.1879281     21.47425    9902.7093 
  423000    1.8494929    14.764345    16.613838   -4.0073221    18.723635  0.048032344   0.13513647    1.2331494     21.37325    9763.6389 
  424000     1.799068    14.771164    16.570232   -3.9932136    18.719309  0.045069187   -0.1509953    1.1995286    21.442385    9858.6918 
  425000    1.8214582    14.761755    16.583213   -4.0127203    18.730343  0.044132194 -0.048215561    1.2144573    21.401433    9802.3124 
  426000    1.7853308    14.754921    16.540251   -4.0040375    18.710124  0.048834173 -0.075639672    1.1903693    21.427336    9837.9486 
  427000    1.7892331     14.79445    16.583683    -3.988772    18.732616  0.050605844   0.19800566    1.1929712    21.395125    9793.6482 
  428000    1.8058405     14.79044     16.59628   -4.0028193    18.746328  0.046931191  -0.17226386    1.2040442    21.434922    9848.4008 
  429000    1.8055612     14.81433    16.619891   -3.9715702    18.740359  0.045541842 -0.074875286    1.2038579    21.430137    9841.8072 
  430000    1.7764119    14.802617    16.579029   -3.9825562    18.738663  0.046510102 -0.028923608    1.1844226    21.448125    9866.6106 
  431000     1.800654    14.783929    16.584583   -4.0095993    18.743662  0.049866328  0.054685798    1.2005861    21.391154    9788.1957 
  432000    1.7850125    14.763179    16.548191   -4.0114533    18.725057  0.049574887   -0.1271218    1.1901571    21.407616    9810.8111 
  433000    1.7829623     14.80169    16.584652   -3.9811551    18.734983     0.047862  0.037108668    1.1887901    21.428509    9839.5648 
  434000    1.8178684      14.8269    16.644768   -3.9710942     18.74486  0.053134341  0.075478322    1.2120638    21.443229    9859.8549 
  435000    1.8093419    14.789112    16.598454   -3.9914594    18.733544  0.047027149  -0.10223474    1.2063788    21.444884    9862.1385 
  436000    1.7939935    14.768166     16.56216   -3.9946833      18.7156  0.047249632   0.24442339    1.1961452     21.38579    9780.8338 
  437000    1.7820152    14.764042    16.546057   -4.0039035    18.720646   0.04729922 -0.095105799    1.1881586    21.414324    9820.0365 
  438000    1.8015824    14.776131    16.577714   -3.9890869    18.717109  0.048109152 -0.038350142    1.2012051    21.420507    9828.5445 
  439000    1.7895104    14.808771    16.598281   -3.9694547    18.729259  0.048966782   0.15057559     1.193156    21.437194    9851.5336 
  440000     1.814899    14.792383    16.607282   -3.9838251    18.724533   0.05167423 -0.019131678    1.2100839      21.4378    9852.3678 
  441000    1.7937292    14.796426    16.590155   -3.9707645    18.718525   0.04866527 -0.0066561935    1.1959689    21.432934    9845.6609 
  442000    1.7931579    14.768614    16.561772   -4.0122624    18.730678  0.050198694 -0.015345572     1.195588    21.413052    9818.2868 
  443000    1.8088679     14.80892    16.617788   -3.9827703    18.740992  0.050698392  -0.13644023    1.2060627    21.451326    9871.0287 
  444000    1.8118694    14.796927    16.608797   -3.9752573    18.724258  0.047926809 0.00031444112     1.208064    21.434563    9847.9066 
  445000    1.7772447    14.781376    16.558621    -4.007102    18.737367  0.051110726 -0.047744818    1.1849779    21.390314    9787.0426 
  446000    1.7675034    14.763152    16.530656   -4.0118832    18.729752  0.045283889 -0.096063168    1.1784829    21.388887    9785.0841 
  447000    1.7856991    14.777746    16.563446   -4.0011357    18.726964  0.051918583   0.30898954    1.1906149    21.371373    9761.0666 
  448000     1.788207    14.775686    16.563893   -3.9958829    18.722399  0.049169382 0.0068283015    1.1922871    21.437669    9852.1874 
  449000    1.7986609    14.816612    16.615273    -3.968491    18.739399  0.045704204 -0.025483765    1.1992572     21.44434    9861.3877 
  450000    1.7930707     14.80106    16.594131   -3.9847061    18.735392  0.050373984   -0.1753576    1.1955299    21.432278    9844.7574 
  451000    1.7622585    14.760967    16.523225   -4.0130745    18.724056  0.049985559  0.023841671    1.1749858    21.399391    9799.5068 
  452000    1.7957839    14.725416      16.5212   -4.0380314    18.717371  0.046076502  0.040305489    1.1973389    21.361182    9747.1095 
  453000    1.7987647    14.790276     16.58904   -3.9830383    18.724663  0.048650739 -0.072382682    1.1993264    21.443984    9860.8965 
  454000    1.8262659    14.807174     16.63344   -3.9711647    18.727356  0.050982274 -0.010795887    1.2176628    21.442055    9858.2358 
  455000    1.8057564    14.776346    16.582102   -3.9916745    18.721015  0.047005195  -0.11971465    1.2039881    21.426779    9837.1806 
  456000    1.7861651     14.78631    16.572475   -4.0062607    18.746394  0.046177194  -0.19862912    1.1909256    21.426241    9836.4403 
  457000    1.8377988    14.788891     16.62669   -3.9843533    18.727176   0.04606759  0.042436773    1.2253524    21.425019     9834.758 
  458000    1.8155965    14.766738    16.582335   -4.0060214    18.728695  0.044064749  0.076422919     1.210549    21.421514    9829.9318 
  459000    1.7981329    14.768056    16.566189    -4.025143    18.745718  0.047481885 -0.072694043    1.1989051    21.380181    9773.1408 
  460000    1.7876573    14.731183     16.51884   -4.0282123    18.714009  0.045385584  0.035167342    1.1919205     21.36527    9752.7062 
  461000    1.7982029    14.772935    16.571138   -4.0118713    18.735858  0.048948242  0.025363783    1.1989518    21.387887    9783.7115 
  462000    1.7919233    14.801025    16.592948   -3.9790835    18.730997  0.049111402   0.07916065    1.1947649    21.429914    9841.4995 
  463000    1.8052165     14.79128    16.596497   -4.0020268    18.742468  0.050839125  -0.29822757    1.2036281    21.426506    9836.8058 
  464000    1.7839579     14.75687    16.540828   -4.0209127    18.730339  0.047443181 -0.023165517     1.189454    21.391731    9788.9874 
  465000    1.8181866    14.759603    16.577789   -4.0031454    18.715211  0.047537323  0.060545325    1.2122759    21.399643    9799.8541 
  466000    1.8123679    14.801461    16.613829   -3.9695629    18.720811  0.050212992 -0.077445927    1.2083963    21.474614    9903.2132 
  467000     1.809208    14.788269    16.597477   -4.0052744    18.743348  0.050194707  0.022070633    1.2062895    21.389537    9785.9763 
  468000    1.7993949    14.754331    16.553725   -4.0080796    18.711548  0.050862353 -0.083821126    1.1997465    21.402661    9803.9997 
  469000    1.8015101    14.794438    16.595948   -3.9832879     18.73385  0.043875212    0.1337918    1.2011569    21.420465    9828.4869 
  470000    1.8035819    14.809739    16.613321   -3.9819602    18.744816  0.046883399   0.15066054    1.2025382    21.436518    9850.6007 
  471000      1.80404    14.782175    16.586215   -4.0031885    18.736997  0.048366908  0.039120727    1.2028437    21.406982    9809.9399 
  472000    1.7912441    14.767538    16.558782   -4.0002693    18.721387  0.046420516  -0.15245103     1.194312    21.435435    9849.1077 
  473000    1.8220234    14.787662    16.609686   -3.9841086    18.726338  0.045432791 -0.011676507    1.2148341    21.439439    9854.6278 
  474000     1.797916    14.787054     16.58497   -3.9929983    18.732131  0.047921366 -0.023470979    1.1987605    21.400671    9801.2658 
  475000    1.7971816    14.770845    16.568027   -3.9944718    18.718796  0.046520688   -0.1737809    1.1982708    21.455358    9876.5957 
  476000    1.8214788    14.782027    16.603506   -3.9960676    18.731648  0.046446618 -0.019663535     1.214471    21.423743    9833.0003 
  477000    1.8157357     14.78471    16.600446   -3.9947529    18.734972  0.044490804 -0.066059154    1.2106418    21.449712     9868.801 
  478000    1.7974874    14.773173    16.570661   -3.9997748     18.72565  0.047298144  -0.15576542    1.1984747    21.429998     9841.615 
  479000    1.7947357    14.766053    16.560789   -4.0015547     18.72172  0.045888032 0.0077004286    1.1966401    21.399211    9799.2596 
  480000    1.7789257    14.803894     16.58282   -3.9712053    18.727013  0.048086877 -0.018193932    1.1860987    21.458342    9880.7171 
  481000    1.8008311    14.827153    16.627984   -3.9681025    18.745897  0.049358898  -0.17900262    1.2007041    21.458182    9880.4969 
  482000     1.786389    14.775223    16.561612   -4.0071961    18.735712  0.046707786  0.044914375    1.1910749    21.408332    9811.7955 
  483000    1.7986154    14.768257    16.566872   -4.0095066    18.732841  0.044922587  0.013168225    1.1992268    21.422568     9831.382 
  484000    1.8166412    14.789084    16.605725   -3.9842584    18.726699   0.04664387  -0.05274045    1.2112456    21.436104    9850.0306 
  485000    1.7954861    14.772414      16.5679   -4.0051068    18.730141  0.047380459   0.11633092    1.1971404    21.402883    9804.3049 
  486000    1.7984883    14.771101    16.569589   -4.0091383    18.731142  0.049097513 -0.057152371    1.1991421    21.411626    9816.3257 
  487000    1.7857943    14.786963    16.572757   -4.0078987     18.74575  0.049112075   0.15941016    1.1906783    21.387136    9782.6815 
  488000     1.795803    14.781708    16.577511   -4.0014063    18.731078  0.052036604  0.039133557    1.1973517    21.419635    9827.3446 
  489000    1.7914219    14.803168    16.594589   -3.9819682    18.739436  0.045699891 -0.045682993    1.1944306     21.42809    9838.9868 
  490000    1.8130006      14.7615    16.574501   -4.0055234    18.715531  0.051492059  0.048869273    1.2088182    21.421597     9830.045 
  491000    1.8194183    14.824053    16.643471   -3.9602246     18.73248  0.051797922 -0.089960283    1.2130972    21.453461    9873.9765 
  492000     1.807752    14.806625    16.614377   -3.9621293    18.716239  0.052515172 0.0056109745    1.2053187    21.459482     9882.292 
  493000    1.8163327    14.773079    16.589412   -3.9956822    18.721988  0.046773964 -0.035007764    1.2110398    21.435194    9848.7754 
  494000    1.7759849     14.75307    16.529055   -4.0157526    18.717391  0.051431958 -0.042744878     1.184138    21.401712    9802.6963 
  495000    1.7923484    14.751407    16.543755   -4.0226142    18.723532  0.050489248  0.012173535    1.1950483    21.373521    9764.0096 
  496000    1.8307443    14.776237    16.606981   -3.9973274    18.723441  0.050123025   0.11504693    1.2206488    21.416384    9822.8714 
  497000    1.7879639    14.791835    16.579799   -3.9825651    18.725943  0.048456778  -0.11453713     1.192125    21.460078    9883.1163 
  498000    1.8059706     14.81095     16.61692   -3.9815999    18.745369   0.04718097    0.3252624    1.2041309    21.421938    9830.5151 
  499000    1.7874582    14.794572     16.58203   -3.9929785    18.737936  0.049614606   -0.1517679    1.1917878     21.44333    9859.9954 
  500000    1.8154296    14.743636    16.559065   -4.0381953    18.733197   0.04863464 -0.024383329    1.2104377    21.378416    9770.7199 
  501000     1.760969    14.755741     16.51671   -4.0050151    18.712613  0.048142644   0.13933372    1.1741261    21.393852    9791.9004 
  502000    1.7866956    14.782566    16.569262   -3.9935658    18.724301  0.051831097 -0.068652204    1.1912793    21.408622     9812.195 
  503000    1.7949693    14.816463    16.611432   -3.9755877    18.745596  0.046454155  0.072117465    1.1967958    21.447032    9865.1028 
  504000    1.8166561    14.796499    16.613155   -3.9841644    18.736054  0.044610025   0.08711964    1.2112554    21.449983    9869.1751 
  505000     1.800605       14.761    16.561605   -4.0132641    18.726397  0.047866525  -0.10088464    1.2005534    21.404606    9806.6738 
  506000    1.7969086    14.774331     16.57124   -4.0074453    18.734914  0.046861898  0.084755201    1.1980889    21.402037    9803.1424 
  507000    1.8202028    14.784469    16.604672   -3.9892758    18.728639  0.045105108  -0.20457661    1.2136203     21.44068    9856.3399 
  508000    1.8190233    14.750863    16.569886   -4.0122411    18.713314  0.049789198   0.19360445    1.2128338    21.378392    9770.6876 
  509000    1.7969778    14.775927    16.572905   -4.0037246    18.731126  0.048526202 0.0092648178     1.198135    21.426221     9836.413 
  510000    1.8064211    14.779016    16.585437    -4.004516    18.738205  0.045327086  -0.12486399    1.2044313    21.418751    9826.1283 
  511000    1.7737226    14.761465    16.535187   -4.0107632    18.724702  0.047525417  0.002157269    1.1826295    21.391554    9788.7442 
  512000    1.7981925    14.772668    16.570861   -4.0158601    18.736624  0.051904131   0.14649394    1.1989449    21.395047    9793.5404 
  513000    1.8224725    14.768097    16.590569   -4.0043774    18.722397  0.050077058  -0.03661585    1.2151335    21.417447    9824.3331 
  514000    1.7874055     14.77366    16.561065   -4.0079101    18.736639  0.044931367 -0.065462219    1.1917527    21.412653    9817.7385 
  515000    1.7931081    14.746495    16.539603   -4.0155111    18.717909   0.04409697  0.010669295    1.1955548    21.390646    9787.4981 
  516000    1.8076061    14.793478    16.601084   -3.9666585    18.709002  0.051134587 -0.022669878    1.2052214     21.45284    9873.1195 
  517000    1.8155302    14.807463    16.622993   -3.9815633    18.745566  0.043460057   0.21154542    1.2105048    21.433327    9846.2021 
  518000    1.7793231    14.787028    16.566351   -4.0017009    18.740605  0.048124178 -0.0082830726    1.1863637    21.400581     9801.142 
  519000    1.7697397    14.807403    16.577143   -3.9929064    18.754832  0.045477652 -0.072971483     1.179974    21.411635    9816.3375 
  520000    1.8367053    14.765277    16.601982   -4.0132886    18.728113   0.05045213 -0.024540138    1.2246232     21.40411     9805.992 
  521000    1.7627296    14.789968    16.552698   -4.0002217    18.739159  0.051030861 -0.028497895    1.1752999    21.423843    9833.1374 
  522000    1.8003204    14.788039    16.588359   -3.9981815    18.735906  0.050314352   0.15709214    1.2003636    21.410434     9814.686 
  523000    1.8032612    14.783495    16.586756   -3.9808774    18.718123  0.046249026 -0.039536156    1.2023244    21.445777    9863.3706 
  524000     1.794411     14.78857    16.582981   -3.9982641    18.734922  0.051912025  0.078803774    1.1964236    21.401891    9802.9429 
  525000    1.7890985    14.753941     16.54304   -4.0213437    18.723124  0.052160534  0.015997948    1.1928815    21.386249    9781.4643 
  526000    1.8202799    14.787548    16.607828   -4.0077734    18.742845  0.052475888  -0.10779244    1.2136717    21.403506    9805.1617 
  527000    1.8047069    14.801145    16.605851   -3.9848027    18.740153  0.045794196 -0.031867144    1.2032883    21.459312    9882.0574 
  528000    1.8075125     14.74968    16.557192   -4.0394491    18.736401  0.052727923  -0.17289125     1.205159    21.412944     9818.138 
  529000    1.8087705    14.753491    16.562262    -4.014227    18.721306  0.046412708  0.075815435    1.2059978    21.383063    9777.0924 
  530000    1.7925861    14.773181    16.565767   -3.9934035    18.716506  0.050078024  -0.10894258    1.1952068    21.431212    9843.2883 
  531000    1.8202387    14.786933    16.607172   -3.9817235    18.717134  0.051522694  -0.11975923    1.2136442    21.424321    9833.7967 
  532000    1.7997167    14.780956    16.580672   -3.9959579    18.732675  0.044238405 -0.0059036874    1.1999612    21.437178    9851.5114 
  533000    1.7946882    14.793235    16.587924   -3.9922851    18.732656  0.052864849   0.15915302    1.1966084     21.41069    9815.0384 
  534000     1.781275    14.748599    16.529874   -4.0239333    18.721753  0.050779452 -0.018245203    1.1876651    21.385943    9781.0435 
  535000     1.783838    14.781768    16.565606   -3.9791612    18.714796  0.046132758   0.14731777     1.189374     21.41896    9826.4152 
  536000    1.8128898    14.790429    16.603319   -3.9778546    18.720712  0.047571197  -0.10458774    1.2087443    21.453178    9873.5859 
  537000    1.8153995    14.781052    16.596452   -3.9917569    18.726714  0.046095589  0.034172312    1.2104176    21.407868    9811.1577 
  538000    1.7883416    14.766181    16.554522   -4.0002038    18.721106   0.04527857   0.11503235    1.1923768    21.418553    9825.8555 
  539000    1.7967695    14.799308    16.596078   -3.9921682    18.740208  0.051268421   0.19937555    1.1979961    21.412028    9816.8785 
  540000     1.795029    14.777723    16.572752   -3.9969065      18.7292  0.045429572  -0.12376212    1.1968356    21.438198    9852.9177 
  541000    1.7996543    14.777411    16.577065    -4.003656    18.731711  0.049355456 -0.061272149    1.1999195    21.400123    9800.5126 
  542000    1.7918018    14.773646    16.565447   -4.0042403    18.726304  0.051582137 -0.044006855    1.1946839    21.445989    9863.6626 
  543000    1.8098153    14.812072    16.621887   -3.9871499    18.745267    0.0539544   0.16671942    1.2066944    21.428068    9838.9564 
  544000    1.7989262    14.785103     16.58403   -3.9813008    18.716797  0.049607696 -0.025368346    1.1994341    21.454077    9874.8274 
  545000    1.7773953    14.754669    16.532065   -3.9935067    18.702314  0.045861657   0.13321379    1.1850783    21.408736    9812.3507 
  546000    1.7957017    14.756205    16.551906   -4.0183259     18.72547  0.049060938  0.089985955    1.1972841    21.375711    9767.0117 
  547000    1.7896364    14.779483    16.569119   -3.9937388    18.727205  0.046016716  0.061377489    1.1932401    21.413117    9818.3767 
  548000    1.8201241    14.800827    16.620951   -3.9975367    18.746971  0.051392438  0.032874927    1.2135678    21.418743    9826.1174 
  549000     1.800378    14.775179    16.575557   -3.9908694    18.719669  0.046379541 -0.084053351     1.200402    21.447748    9866.0909 
  550000    1.8008353    14.768877    16.569713   -4.0152011    18.732399  0.051679733 -0.00084697524    1.2007069    21.397611    9797.0623 
  551000    1.7802497    14.786347    16.566597   -3.9785438    18.721347  0.043544059 -0.090735094    1.1869815    21.455499    9876.7908 
  552000    1.8026063    14.783321    16.585928   -3.9900361    18.725872   0.04748499  0.040130955    1.2018877    21.381774    9775.3252 
  553000    1.8001361    14.776477    16.576613   -3.9914882    18.722764  0.045200947 0.0058229567    1.2002408    21.442444    9858.7725 
  554000    1.8077078    14.789748    16.597456   -3.9896989    18.732236  0.047211055  -0.24508162    1.2052892     21.43355    9846.5099 
  555000    1.7757153    14.760509    16.536224   -4.0088728    18.723337   0.04604463 -0.024146893    1.1839582    21.408032    9811.3828 
[...]
 9867000    1.7814623    14.785628     16.56709   -3.9951733    18.730314  0.050487643   0.19283581      1.18779     21.40269    9804.0405 
 9868000    1.7968913    14.766543    16.563434   -3.9992387    18.717562  0.048219008  0.075964463    1.1980773    21.414794    9820.6838 
 9869000     1.813463    14.786096    16.599559   -3.9814534    18.722633  0.044916631   0.17107501    1.2091265    21.429113    9840.3956 
 9870000    1.8212562    14.820884    16.642141   -3.9607222    18.736986  0.044620626  -0.15638976    1.2143226    21.453137    9873.5297 
 9871000     1.800131    14.784663    16.584794   -3.9832347    18.717545  0.050352837  0.060103558    1.2002374     21.43413    9847.3099 
 9872000    1.8003498    14.767965    16.568315   -4.0042707    18.726491   0.04574474  0.083316709    1.2003833     21.40888    9812.5492 
 9873000    1.7462444    14.771847    16.518091   -4.0129215     18.73726  0.047507661 0.0036465128    1.1643085    21.392807    9790.4655 
 9874000    1.8116792     14.76189    16.573569   -4.0084511    18.724135  0.046205726   0.01844621    1.2079371    21.399715    9799.9521 
 9875000    1.7991907    14.780924    16.580115   -3.9971836    18.729243  0.048864474  0.009574636    1.1996104    21.415453    9821.5895 
 9876000      1.75657    14.775888    16.532458   -3.9908843    18.719762  0.047010147  -0.18668812    1.1711931    21.427105    9837.6301 
 9877000    1.7964367    14.777471    16.573907   -4.0090074    18.742679  0.043798973 -0.074948211    1.1977742    21.392952    9790.6641 
 9878000    1.8003464    14.765186    16.565532   -4.0062403    18.723221   0.04820531 -0.041874279     1.200381    21.430159    9841.8378 
 9879000    1.8069169    14.812943     16.61986   -3.9722899    18.739371  0.045861627   0.11696792    1.2047619     21.41812    9825.2604 
 9880000    1.7809177    14.800021    16.580939   -3.9768183     18.73018  0.046659662   0.14028181    1.1874269    21.465976    9891.2671 
 9881000    1.8155684    14.809622    16.625191   -3.9947403    18.753134  0.051228253   0.25168581    1.2105303    21.396942    9796.1436 
 9882000    1.7865161     14.79387    16.580386   -3.9725932    18.719179  0.047284414 -0.028564733    1.1911596    21.452785    9873.0436 
 9883000    1.7874455    14.782337    16.569783   -3.9943855    18.731772  0.044951112   0.11739355    1.1917793    21.404447     9806.455 
 9884000    1.7971886    14.720938    16.518127   -4.0396791    18.716675  0.043942191   0.13173133    1.1982755    21.348532     9729.803 
 9885000    1.7645263    14.783278    16.547804   -3.9952653    18.730357  0.048186308  -0.10677287    1.1764979     21.41891    9826.3473 
 9886000    1.8108348    14.766719    16.577554   -4.0027742    18.726732  0.042761722 0.0041588037    1.2073741    21.405999    9808.5882 
 9887000    1.7873225    14.764776    16.552099   -4.0061565    18.722516   0.04841658 -0.035004059    1.1916973    21.415023    9820.9982 
 9888000    1.8197171    14.745907    16.565624   -4.0367999    18.735735  0.046971915 -0.044632401    1.2132964    21.366693     9754.656 
 9889000    1.7799176    14.775793    16.555711   -4.0065142    18.735206  0.047101456  0.050694967    1.1867601    21.423592    9832.7922 
 9890000    1.8099414    14.788923    16.598865   -3.9891781    18.730214  0.047887483   0.22284295    1.2067784    21.399795    9800.0628 
 9891000    1.8092648    14.809364    16.618629   -3.9607618    18.720194  0.049931823 -0.021901733    1.2063273    21.467225    9892.9939 
 9892000    1.8083988    14.805031    16.613429   -3.9565819    18.716295   0.04531769  0.028075016    1.2057499    21.464812     9889.658 
 9893000     1.791702    14.795997    16.587699   -3.9971749    18.740892  0.052280039  0.033308269    1.1946173    21.436333    9850.3466 
 9894000    1.7982329    14.792231    16.590464   -4.0086135    18.752686  0.048158902  -0.22585798    1.1989718    21.401046    9801.7815 
 9895000    1.7893324    14.749662    16.538994   -4.0162215    18.718723  0.047159998   0.18274852    1.1930374    21.410504    9814.7818 
 9896000    1.8197737    14.765329    16.585103   -4.0016879     18.71811  0.048907671 -0.0039856569    1.2133341    21.397597    9797.0433 
 9897000    1.8048361    14.771124     16.57596   -4.0029658       18.729  0.045090324   0.10690021    1.2033745    21.428667    9839.7818 
 9898000    1.8019423    14.774469    16.576411   -4.0028689    18.728742  0.048595347 -0.008314181     1.201445    21.411244    9815.8005 
 9899000     1.776742    14.743358      16.5201    -4.028127    18.723209   0.04827565 -0.065332621    1.1846428    21.392669    9790.2749 
 9900000    1.7854425    14.743751    16.529194   -4.0223834    18.718562  0.047572897  0.037594727    1.1904438    21.376469    9768.0509 
 9901000    1.7924784     14.77349    16.565969   -4.0031352     18.73289  0.043735242   0.10988913     1.195135    21.413746    9819.2418 
 9902000    1.8077919     14.77571    16.583502    -4.016843    18.749633  0.042920875   0.15969472    1.2053453      21.3945    9792.7902 
 9903000    1.7653418    14.765756    16.531098   -4.0131983    18.731117  0.047838165 -0.094567379    1.1770417    21.408392     9811.878 
 9904000    1.8108445    14.756843    16.567687   -4.0284501    18.737147  0.048146395  0.074839951    1.2073806    21.358126    9742.9261 
 9905000    1.7681522    14.796892    16.565044   -3.9955825    18.747884  0.044590037 -0.036841295    1.1789155    21.447003    9865.0622 
 9906000    1.8101262    14.785265    16.595391   -3.9940294    18.733515  0.045778701  0.050608399    1.2069017    21.407725    9810.9611 
 9907000    1.7977666    14.753941    16.551708   -4.0144835    18.721565  0.046859586  0.019634253    1.1986609    21.394961    9793.4233 
 9908000    1.7789978    14.780007    16.559005   -4.0112318     18.74179  0.049448921 -0.088879974    1.1861468    21.410939    9815.3806 
 9909000    1.8058778    14.798438    16.604316   -3.9945318    18.745315  0.047654796   0.07181588     1.204069    21.412102    9816.9803 
 9910000    1.7954635       14.757    16.552463   -4.0014067    18.716803  0.041603795  -0.10317328    1.1971253    21.417801    9824.8209 
 9911000    1.7772302    14.785629    16.562859   -3.9776494    18.718527  0.044750741  0.095669981    1.1849682    21.428608       9839.7 
 9912000     1.828321    14.770063    16.598384    -4.003936    18.722576  0.051422768 -0.048413708    1.2190331    21.426823    9837.2415 
 9913000    1.7958619    14.785448     16.58131   -3.9765521    18.718347  0.043653897  -0.19281664     1.197391    21.447085    9865.1758 
 9914000    1.8084544    14.779225     16.58768   -4.0029505    18.733516  0.048660168 -0.028943577     1.205787    21.419582    9827.2721 
 9915000    1.7906235    14.750745    16.541369   -4.0090786    18.713372  0.046451948 -0.017457574    1.1938982    21.401444    9802.3277 
 9916000    1.7792922    14.765272    16.544564   -4.0044024    18.722671  0.047003847 0.0063546018    1.1863431    21.399842    9800.1268 
 9917000    1.8026123    14.764687    16.567299   -3.9948424      18.7114  0.048129048  0.088334859    1.2018918    21.407609    9810.8018 
 9918000    1.8170039    14.797265    16.614269   -3.9783788    18.726127  0.049516745  0.095033577    1.2114874    21.435031    9848.5515 
 9919000    1.8045483    14.795478    16.600027   -3.9704407    18.719523  0.046395634 -0.0076676105    1.2031826    21.453601    9874.1697 
 9920000    1.7968787    14.792511     16.58939    -3.989032    18.731507  0.050036358 -0.035343155    1.1980689    21.415864     9822.155 
 9921000     1.766404     14.78568    16.552084   -3.9898851    18.730124   0.04544105 -0.074141058    1.1777499    21.421062    9829.3088 
 9922000    1.7910368     14.80113    16.592167   -3.9929112    18.746024  0.048017218    0.1181764    1.1941738    21.404917    9807.1007 
 9923000    1.7969516    14.794466    16.591418    -3.978474    18.721853  0.051087764  -0.10526686    1.1981175    21.457112    9879.0187 
 9924000    1.8050588    14.807462     16.61252   -3.9829905    18.733672  0.056779852   0.10023736     1.203523     21.41862    9825.9485 
 9925000     1.819596    14.795425    16.615021   -3.9792855     18.72406  0.050650466 -0.065029712    1.2132157    21.443392     9860.081 
 9926000    1.7972416    14.787655    16.584896   -3.9809084    18.722072  0.046491061 0.0089400218    1.1983109    21.431463    9843.6337 
 9927000    1.8178477     14.76248    16.580327   -4.0073053    18.719369   0.05041623   0.16190757    1.2120499    21.388613    9784.7079 
 9928000    1.7833475    14.776684    16.560031    -4.010411    18.739622  0.047472854  -0.02385107     1.189047    21.421229    9829.5394 
 9929000    1.8233141    14.771243    16.594557    -4.017368    18.735338  0.053272343 -0.060152932    1.2156947    21.389991    9786.5994 
 9930000    1.7822982    14.768571    16.550869   -4.0001174    18.722339  0.046349005   -0.2076461    1.1883474    21.413634    9819.0878 
 9931000    1.8130536    14.759346      16.5724   -4.0141843    18.720985  0.052545818  -0.23664444    1.2088535    21.415095    9821.0969 
 9932000    1.8044657    14.809149    16.613615   -3.9914172    18.751422  0.049144416   0.11155316    1.2031275    21.419675    9827.3993 
 9933000    1.7859472    14.765177    16.551125   -3.9932397    18.711983   0.04643378  -0.17851649    1.1907803    21.431925     9844.271 
 9934000    1.7913912    14.794536    16.585927   -3.9853345     18.72744  0.052430313  0.042121573    1.1944101     21.41911    9826.6219 
 9935000    1.8092719    14.801544    16.610816   -3.9764598    18.730986  0.047017852  0.029722665     1.206332     21.43318    9845.9997 
 9936000    1.7818905    14.762312    16.544202   -4.0080204    18.719832  0.050500259  0.082588071    1.1880755    21.400793    9801.4335 
 9937000     1.787195    14.787444    16.574639   -4.0001329    18.742084  0.045492842  0.074644614    1.1916123    21.412819     9817.967 
 9938000    1.8115182    14.791972    16.603491    -3.995715    18.739449  0.048238016  0.053824515    1.2078298    21.428283    9839.2525 
 9939000    1.7878312    14.795092    16.582923   -3.9741572    18.722448  0.046800854 -0.054385025    1.1920365    21.429571    9841.0278 
 9940000    1.8014423    14.760795    16.562237   -4.0058309    18.719852  0.046774139   0.10283025    1.2011117    21.419327    9826.9216 
 9941000    1.8004131     14.73301    16.533423   -4.0493493    18.739176  0.043183229 -0.006750902    1.2004254     21.34022     9718.443 
 9942000    1.7722915    14.735371    16.507663   -4.0307757     18.71595  0.050197276 -0.074073277    1.1816754    21.354284    9737.6692 
 9943000    1.7837287    14.782777    16.566506   -3.9841319    18.715259  0.051650403  -0.17189278    1.1893011    21.438679    9853.5811 
 9944000    1.8183916    14.792971    16.611363   -3.9852891    18.727423  0.050837058   0.14220176    1.2124126    21.420717    9828.8342 
 9945000    1.7937457    14.773116    16.566861   -3.9961659     18.71824   0.05104104  -0.09673008    1.1959799    21.424938    9834.6461 
 9946000    1.7708641    14.743732    16.514596   -4.0121136    18.708878  0.046967685  -0.04474725    1.1807236    21.394065    9792.1919 
 9947000    1.8007312    14.763716    16.564447   -4.0131677    18.726418  0.050465719  -0.10854921    1.2006375    21.414509     9820.291 
 9948000    1.8125813    14.787617    16.600198   -3.9818951    18.720885  0.048626509 -0.024744516    1.2085386    21.429885    9841.4599 
 9949000    1.7663573     14.79885    16.565207   -3.9674633    18.720635  0.045678155  0.036322197    1.1777188    21.445282     9862.688 
 9950000     1.827957    14.765954    16.593911   -4.0131443    18.728515  0.050583243 0.00040459545    1.2187904     21.37988    9772.7276 
 9951000    1.7717249    14.798712    16.570437   -3.9720849    18.721143  0.049654737   -0.2212694    1.1812976     21.46862     9894.922 
 9952000    1.8307443     14.76552    16.596264   -4.0100127     18.72614  0.049392372  0.046266172    1.2206488    21.397048    9796.2886 
 9953000    1.7927125    14.790539    16.583251   -3.9700923    18.712316  0.048315421  -0.18717775     1.195291    21.460503    9883.7025 
 9954000    1.7795913    14.754792    16.534384   -4.0225017    18.729984  0.047309678  -0.14823046    1.1865425    21.376668    9768.3235 
 9955000    1.7956631     14.77119    16.566853   -4.0086455    18.729315  0.050519735  -0.10975771    1.1972584    21.395721     9794.466 
 9956000    1.8023364    14.798808    16.601145   -3.9794185    18.731793  0.046433831   -0.1515777    1.2017078     21.44284    9859.3189 
 9957000    1.7984998     14.76115     16.55965   -4.0060485    18.717542  0.049656729 -0.016902676    1.1991498    21.420537    9828.5867 
 9958000    1.7998243    14.751603    16.551427   -4.0175874    18.724036   0.04515458 0.00069954592    1.2000328    21.383053    9777.0795 
 9959000    1.7973625    14.807335    16.604698   -3.9651376    18.729377  0.043095882  0.068098577    1.1983915    21.444187    9861.1772 
 9960000    1.8282766    14.784645    16.612922   -3.9932449    18.729901  0.047989244 -0.027252725    1.2190034    21.430972    9842.9569 
 9961000    1.8039257    14.772624     16.57655   -4.0005988    18.724431   0.04879157 -0.073280441    1.2027675    21.444708    9861.8963 
 9962000    1.8044504    14.798295    16.602745   -3.9686097    18.718368  0.048536815  0.026948207    1.2031173    21.428153    9839.0743 
 9963000     1.802545    14.806212    16.608757   -3.9687024    18.725266  0.049648725 -0.029023061    1.2018469     21.46164    9885.2745 
 9964000    1.8069467    14.780782    16.587729   -3.9946346    18.730583  0.044833758  0.098310637    1.2047817    21.417578     9824.514 
 9965000    1.7978209    14.726717    16.524538   -4.0539951    18.732036  0.048676811  0.028496322    1.1986971    21.343525    9722.9582 
 9966000    1.7827275     14.75959    16.542318   -4.0288189    18.741037   0.04737236 -0.016359094    1.1886336     21.39953    9799.6986 
 9967000    1.8014803    14.785216    16.586697   -3.9945387    18.731294  0.048460743 -0.006491323     1.201137    21.424402    9833.9079 
 9968000    1.8033019    14.767921    16.571223   -4.0104399    18.729401  0.048959936 -0.031987287    1.2023516    21.402924    9804.3611 
 9969000    1.7943307    14.738652    16.532982   -4.0164752    18.707898  0.047228746   0.13613466      1.19637    21.366344    9754.1777 
 9970000    1.7989198    14.786357    16.585277   -3.9860849    18.725923  0.046519481  -0.08306937    1.1994298    21.427136    9837.6734 
 9971000    1.7951911    14.789461    16.584652   -3.9856771    18.726898  0.048240682 -0.029058481    1.1969437    21.408764    9812.3894 
 9972000    1.7871153     14.75745    16.544565   -4.0147624    18.724302  0.047909603 -0.004983455    1.1915591    21.409829    9813.8537 
 9973000    1.8162485    14.783404    16.599653     -3.99548     18.72751  0.051374018   0.17610275    1.2109837    21.428256    9839.2156 
 9974000    1.8149735    14.805577     16.62055   -3.9843289    18.740937  0.048968375 -0.076913619    1.2101336     21.43506    9848.5908 
 9975000    1.7967741    14.759369    16.556143   -4.0078754    18.720155  0.047089613 -0.0083068888    1.1979991    21.394374    9792.6163 
 9976000    1.8109634    14.745499    16.556463   -4.0362268    18.731012  0.050713708 -0.045861876    1.2074599    21.382476    9776.2881 
 9977000    1.8034667    14.804747    16.608213   -3.9614524    18.717281  0.048917875 -0.090090811    1.2024615    21.462927    9887.0532 
 9978000    1.8162211    14.809628    16.625849   -3.9683154     18.72852    0.0494237 -0.084612832    1.2109654    21.456507    9878.1832 
 9979000    1.7657689    14.799837    16.565606   -3.9881102    18.737731  0.050216354  -0.16919294    1.1773265    21.430247    9841.9585 
 9980000    1.8175459    14.755994     16.57354   -4.0256837    18.735693  0.045983998  0.018932284    1.2118487    21.390781    9787.6836 
 9981000     1.772323    14.769477      16.5418   -4.0038274    18.727004  0.046300517  -0.12918879    1.1816964     21.41804    9825.1492 
 9982000    1.7974917    14.768242    16.565734   -4.0104705    18.731089  0.047623771  0.097398742    1.1984776    21.381027    9774.3003 
 9983000    1.8162053    14.769179    16.585384   -3.9919726    18.716408  0.044743054   0.12781353    1.2109549    21.414169     9819.824 
 9984000     1.786718    14.809169    16.595887   -3.9701995    18.728524  0.050845106  0.031597094    1.1912942    21.462675    9886.7039 
 9985000    1.7923921    14.738312    16.530705    -4.032512    18.721261  0.049563754 -0.029203901    1.1950774    21.353477    9736.5654 
 9986000    1.7717848    14.747503    16.519288   -4.0270026    18.725756  0.048749694  0.022025597    1.1813375    21.389918    9786.4985 
 9987000     1.791334    14.784792    16.576126   -4.0063192     18.74022  0.050890932  -0.16769171    1.1943719    21.408814    9812.4585 
 9988000    1.7852389    14.786444    16.571683   -3.9853322    18.725235  0.046541535   0.15697205    1.1903081    21.415598    9821.7901 
 9989000    1.7988289    14.773356    16.572185   -4.0006989    18.721772  0.052282972  0.052330632    1.1993692    21.392345    9789.8306 
 9990000     1.812716    14.777474     16.59019   -4.0073893    18.737098  0.047765184 -0.027447712    1.2086284    21.425633    9835.6032 
 9991000    1.7819247    14.786841    16.568766   -4.0004886    18.735298  0.052030923  -0.21166843    1.1880983    21.436121    9850.0542 
 9992000    1.8050456    14.807304     16.61235   -3.9812623    18.741247  0.047319387  -0.14002992    1.2035142    21.438755    9853.6852 
 9993000    1.8128185    14.758231     16.57105   -4.0122955    18.719616  0.050911163   0.16290182    1.2086968     21.39981    9800.0826 
 9994000    1.7690623    14.749028     16.51809   -4.0198051    18.721392  0.047440866  0.028060814    1.1795223    21.407479    9810.6227 
 9995000    1.8161595    14.767319    16.583479   -4.0118219    18.733684  0.045457329  0.048079171    1.2109244    21.394069     9792.198 
 9996000    1.7704647    14.785207    16.555671   -4.0005443    18.736084  0.049666669 -0.016676409    1.1804574    21.428312    9839.2924 
 9997000    1.8160142    14.780706     16.59672   -3.9964652    18.728782  0.048388751 -0.081435715    1.2108275    21.426148    9836.3116 
 9998000    1.8104333    14.784447    16.594881   -3.9887178    18.727559   0.04560611  -0.12998752    1.2071064    21.441135    9856.9668 
 9999000    1.7910271    14.750524    16.541551   -4.0161295    18.721064  0.045589177  0.073803877    1.1941673    21.385382    9780.2739 
10000000    1.8175484    14.763259    16.580808   -3.9997144    18.718131  0.044842107  -0.19781364    1.2118504    21.435296    9848.9164 
Loop time of 16054.1 on 8 procs for 10000000 steps with 8000 atoms

Performance: 107636.228 tau/day, 622.895 timesteps/s
99.6% CPU use with 8 MPI tasks x no OpenMP threads

MPI task timing breakdown:
Section |  min time  |  avg time  |  max time  |%varavg| %total
---------------------------------------------------------------
Pair    | 10854      | 10948      | 11061      |  71.1 | 68.20
Bond    | 613.97     | 627.75     | 640.44     |  41.3 |  3.91
Neigh   | 1842.3     | 1842.7     | 1843.6     |   1.2 | 11.48
Comm    | 1343       | 1439.8     | 1529.3     | 201.1 |  8.97
Output  | 184.92     | 184.93     | 185.01     |   0.2 |  1.15
Modify  | 903.79     | 913.15     | 925.77     |  27.0 |  5.69
Other   |            | 97.59      |            |       |  0.61

Nlocal:    1000 ave 1013 max 968 min
Histogram: 1 0 0 1 0 0 0 0 4 2
Nghost:    2523 ave 2545 max 2494 min
Histogram: 1 1 0 0 1 1 1 1 0 2
Neighs:    35841.1 ave 36872 max 34347 min
Histogram: 1 0 0 1 0 2 1 1 1 1

Total # of neighbors = 286729
Ave neighs/atom = 35.8411
Ave special neighs/atom = 1.8
Neighbor list builds = 648180
Dangerous builds = 1
Total wall time: 4:27:34
