8000
Atoms. Timestep: 0
1 -1.9214 0.184277 -3.48673
1 -1.35599 0.451386 -2.73235
1 -0.433133 0.423928 -2.97058
1 -0.644516 1.31041 -2.65026
1 -1.52866 1.55426 -2.35278
1 -2.3125 1.08156 -2.09563
1 -2.71154 0.254843 -1.60976
1 -2.10447 0.720436 -1.07802
1 -1.89714 -0.116646 -0.637726
1 -2.36971 -0.579248 -1.34415
1 1.40059 3.57078 4.429
1 0.454904 3.73495 4.42596
1 0.645032 3.93175 5.38725
1 1.30666 4.58522 5.09077
1 0.528453 4.85704 4.57384
1 -0.323151 5.32961 4.47571
1 -0.8568 5.22291 5.29265
1 -0.282295 4.46006 4.99802
1 -0.882629 4.38441 4.28434
1 -1.7948 4.24043 4.53554
1 3.41321 4.66567 8.04484
1 3.95172 4.79979 8.84872
1 4.85332 5.16866 8.70069
1 4.25136 5.94629 8.76795
1 5.02139 6.19515 8.32692
1 5.11176 6.30533 9.24897
1 5.3809 6.03805 10.1183
1 4.81103 5.71126 -9.9377
1 3.99654 6.1734 -9.99908
1 4.60461 6.77194 -9.5983
1 -4.59924 -10.1546 -7.99539
1 -4.15321 -9.84811 -7.16796
1 -4.42182 10.049 -6.74346
1 -5.33557 -10.2035 -6.42539
1 -4.83274 -9.35177 -6.45888
1 -3.96478 -8.92729 -6.22434
1 -3.77408 -9.81731 -5.88361
1 -3.43799 10.126 -5.57105
1 -3.77981 9.26075 -5.20752
1 -4.48007 9.55546 -4.70026
1 -6.61842 8.14258 -7.53885
1 -6.17574 8.33712 -8.36522
1 -5.36999 8.82533 -8.40832
1 -5.03139 9.00139 -9.29992
1 -5.73495 8.27579 -9.30536
1 -4.99996 7.8172 -8.90309
1 -4.53662 8.08445 -9.77376
1 -3.73025 8.02847 -9.21795
1 -3.61967 8.9247 -9.47496
1 -3.53093 8.29608 -10.1688
1 -0.51 -5.26734 4.11806
1 -1.26166 -5.36149 3.40481
1 -1.8499 -5.88044 3.99501
1 -2.73039 -6.34897 3.90005
1 -3.07761 -6.83104 3.13129
1 -2.67469 -7.65524 2.80626
1 -1.81964 -7.08665 2.83349
1 -1.99431 -6.10319 2.90776
1 -2.39534 -6.59559 2.11909
1 -2.60682 -6.60227 1.17679
1 3.37128 -6.08848 -6.5011
1 3.71819 -6.9147 -6.85989
1 3.72266 -7.45433 -7.6857
1 4.29828 -6.89362 -8.12012
1 4.26481 -6.65692 -9.05837
1 4.68439 -5.88166 -9.33846
1 4.34512 -5.56703 -8.4421
1 5.14428 -5.11045 -8.74785
1 4.56708 -4.82287 -9.40768
1 4.13506 -4.57159 -8.55706
1 -6.89434 9.24291 8.75772
1 -5.96459 9.28937 8.66332
1 -5.40784 10.0234 8.40394
1 -5.4121 -9.98264 9.07834
1 -5.82717 -9.57593 9.85417
1 -5.51657 -8.88245 9.24134
1 -6.5119 -8.6971 9.28679
1 -6.67671 -8.96355 8.39551
1 -6.3746 -9.65705 8.98098
1 -6.33511 10.2002 9.33121
1 -2.06977 7.71664 -5.27669
1 -1.54194 8.1185 -4.58345
1 -1.16948 8.24857 -3.65431
1 -1.05167 9.19606 -3.87615
1 -0.77543 10.1426 -3.85365
1 -1.35273 9.84756 -4.60218
1 -1.40608 9.06556 -5.13551
1 -1.49391 9.77908 -5.80077
1 -2.28547 10.3417 -5.56877
1 -1.71929 -10.0981 -6.29633
1 5.70949 8.28898 5.47976
1 6.30825 8.89154 5.92385
1 6.50328 8.95819 5.02766
1 7.14049 9.64161 5.15259
1 7.86172 10.1547 4.74606
1 7.4098 9.99102 3.89376
1 7.47776 -9.91605 3.51521
1 6.56221 -9.56443 3.64696
1 5.63509 -9.52327 3.83166
1 5.50897 -10.08 4.52098
1 4.77093 -4.17351 1.27583
1 4.97247 -4.43446 0.365109
1 4.45899 -4.57992 -0.465899
1 4.04877 -3.71871 -0.360998
1 3.66338 -3.99161 0.489372
1 4.50267 -3.45629 0.519005
1 5.22682 -2.88693 0.868816
1 4.39854 -2.42635 0.714594
1 3.81956 -3.03757 1.21227
1 4.27531 -2.27592 1.69857
1 5.79133 -1.42948 -8.66055
1 5.78601 -0.820341 -9.40893
1 5.46117 0.014474 -9.08122
1 6.28515 0.309922 -8.60079
1 5.95535 -0.47961 -8.21723
1 5.4427 0.315818 -7.94388
1 5.83592 1.17616 -7.83529
1 5.08881 1.42412 -8.45306
1 4.37328 1.12638 -7.89698
1 4.46298 0.271035 -8.38878
1 -7.6847 4.76858 3.39923
1 -7.71537 3.85308 3.63896
1 -7.45561 4.27841 4.42173
1 -8.3654 3.99711 4.59311
1 -8.39989 3.18941 4.18712
1 -8.54002 2.98976 5.14046
1 -9.17072 3.23216 5.76421
1 -9.87839 3.05123 5.1211
1 -9.39973 3.28717 4.33227
1 10.3646 3.13027 4.21135
1 6.88583 9.41748 6.72618
1 6.72738 9.71801 7.59955
1 7.66895 9.56243 7.80108
1 8.40011 9.01925 7.60009
1 9.15665 9.64442 7.45706
1 8.68468 -10.3065 7.82755
1 8.58291 -10.1728 6.84231
1 9.33516 -9.59186 6.98307
1 9.65676 10.2908 6.79541
1 -10.2043 10.1887 6.35929
1 8.3702 -7.4724 1.02937
1 8.15155 -6.66478 1.45334
1 9.04316 -6.72131 1.23511
1 9.05096 -6.96805 0.35482
1 9.91754 -6.9389 0.750435
1 9.7498 -7.22883 1.6486
1 9.27554 -6.79854 2.418
1 8.68948 -7.44824 1.99249
1 8.14416 -7.34111 2.76306
1 7.83809 -6.63235 3.41861
1 6.87907 1.93466 -1.93512
1 7.73841 1.65726 -2.1942
1 7.94021 1.09707 -1.43537
1 8.692 0.773022 -1.97503
1 7.94682 0.18515 -2.19786
1 8.03934 -0.748506 -2.49781
1 7.40695 -0.770951 -3.22836
1 7.23559 -1.56971 -2.75714
1 6.87174 -2.26403 -2.2534
1 5.9781 -2.63445 -2.51804
1 -7.92671 -7.78203 -5.78447
1 -8.74797 -7.60104 -6.2344
1 -8.77477 -8.02117 -5.36316
1 -7.99949 -8.13874 -4.73079
1 -8.19225 -8.28379 -3.78568
1 -7.53027 -8.30469 -2.97683
1 -7.87378 -7.48047 -3.14807
1 -7.40498 -7.68609 -3.89879
1 -6.82423 -6.94773 -4.04699
1 -6.09308 -6.74489 -4.54881
1 -7.82 0.614234 1.55443
1 -7.07832 0.0544129 1.3186
1 -7.3241 -0.057512 2.23637
1 -7.74591 -0.77878 2.72003
1 -7.59402 -1.40325 3.43684
1 -6.62586 -1.37345 3.23316
1 -5.81056 -0.868985 2.96461
1 -4.90108 -1.14574 2.83555
1 -5.05135 -0.624563 2.02997
1 -4.88073 -0.310772 1.16821
1 -2.58727 10.0978 -4.59025
1 -2.46386 9.34846 -5.20895
1 -2.85582 9.5303 -6.09873
1 -3.44994 9.59965 -6.8708
1 -2.84113 -10.3681 -6.86993
1 -3.23214 -9.54777 -6.66605
1 -2.33743 -9.41601 -6.99048
1 -2.11852 -8.9859 -7.7899
1 -1.90478 -9.34807 -8.60102
1 -2.73082 -9.87468 -8.80537
1 0.103835 -4.39046 -5.20275
1 0.364595 -5.30509 -5.10222
1 -0.538138 -5.21937 -4.75989
1 -1.23069 -4.6395 -5.10521
1 -1.48796 -4.15591 -4.19269
1 -2.03281 -4.99709 -4.47228
1 -1.69921 -5.81623 -4.79775
1 -1.25724 -5.88443 -3.93249
1 -0.721569 -6.66413 -4.12528
1 -1.43419 -6.8519 -4.8289
1 -6.10403 1.93976 -3.04522
1 -6.04039 1.83575 -4.00453
1 -6.42309 2.05916 -4.86828
1 -5.62994 2.58759 -4.62928
1 -5.19534 2.33815 -3.79594
1 -5.0649 3.25973 -3.99807
1 -4.91397 3.5338 -3.02912
1 -4.26241 2.77356 -3.0304
1 -4.00104 1.97733 -2.44658
1 -3.37936 1.49563 -2.93159
1 2.17621 -0.216841 -1.15061
1 2.13775 -0.436695 -2.06819
1 2.72258 -1.17163 -2.50283
1 1.82048 -1.17452 -2.88746
1 2.27169 -1.95675 -3.25036
1 2.23942 -1.80767 -4.17383
1 1.36947 -1.47877 -3.8353
1 0.67929 -0.816543 -3.55498
1 0.369816 -1.57629 -3.08112
1 0.276298 -0.79259 -2.53106
1 4.62542 3.14604 -4.18694
1 5.10146 2.31043 -4.2614
1 4.65103 2.45725 -3.3652
1 5.25439 1.73698 -3.38938
1 6.10561 1.2659 -3.30751
1 5.95768 1.4297 -4.22577
1 6.12213 1.20393 -5.14948
1 6.0951 0.219099 -5.4206
1 6.98043 0.463132 -5.09459
1 7.74053 0.282112 -5.53397
1 3.07248 6.63355 -9.76649
1 2.86717 6.10004 10.2073
1 3.42089 5.30055 10.012
1 2.50418 5.04268 10.0152
1 2.65784 4.7215 9.08359
1 2.33043 5.22913 8.29438
1 1.35778 5.56305 8.4951
1 1.5316 5.88539 7.63679
1 0.618557 5.98876 7.34254
1 0.776794 5.07861 7.02637
1 -4.98201 5.11806 -3.94128
1 -5.68658 5.68567 -4.11941
1 -5.33872 5.41127 -4.99024
1 -4.85718 5.13289 -5.80376
1 -4.40653 5.46268 -6.59778
1 -3.74991 6.10151 -6.40279
1 -4.33527 6.7219 -6.81695
1 -4.24348 7.06903 -7.73068
1 -3.7349 7.02169 -8.5504
1 -3.00609 6.68507 -8.98107
1 4.1354 -9.4462 1.82797
1 4.92916 -10.0029 1.5552
1 5.33369 -9.38075 2.1552
1 5.85904 -9.77397 2.79569
1 5.82808 10.2084 3.4476
1 5.58054 9.44843 2.96045
1 5.52853 10.1217 2.27168
1 4.72241 -10.3198 2.58961
1 4.54908 -9.42404 2.95605
1 4.6318 -9.30661 3.86141
1 -2.16451 8.89049 -4.351
1 -3.05833 9.22422 -4.19622
1 -2.7702 8.66286 -3.41134
1 -3.59658 8.17294 -3.34798
1 -4.35625 8.24242 -2.79448
1 -4.50101 7.44423 -3.36293
1 -3.64573 7.09927 -2.92037
1 -2.89978 7.25868 -3.49522
1 -2.13303 7.85049 -3.49252
1 -1.70034 8.40111 -2.76337
1 6.01574 1.13116 -6.40973
1 6.86697 1.08223 -6.05403
1 7.76297 1.42043 -5.85735
1 8.61227 1.20981 -5.4428
1 9.03624 1.54912 -4.72448
1 8.32985 2.21139 -4.67863
1 8.3807 3.14869 -4.71642
1 9.15643 2.65645 -4.53712
1 10.0333 3.05679 -4.1988
1 10.1422 2.15742 -4.59541
1 -4.22281 -1.12005 -7.04195
1 -4.88694 -1.8392 -6.81061
1 -5.2226 -1.00555 -6.52216
1 -5.18184 -0.270666 -7.1676
1 -4.96623 0.560882 -7.60185
1 -4.35809 0.497683 -6.812
1 -3.6747 0.72577 -6.11479
1 -4.41376 0.891943 -5.3883
1 -4.24738 0.892978 -4.45419
1 -5.09497 1.30926 -4.56445
1 3.05685 6.01035 -3.03127
1 3.03447 6.24887 -2.10436
1 2.85575 5.28537 -2.29709
1 2.31012 5.60689 -1.55031
1 1.91214 5.65812 -2.38642
1 2.19566 5.57464 -3.26003
1 2.17095 6.57797 -3.01428
1 1.85306 7.03321 -2.27073
1 1.18455 7.33776 -1.60495
1 1.04612 7.28219 -0.596091
1 -8.12752 -5.86521 -0.743764
1 -9.10241 -5.73861 -0.544123
1 -8.82547 -6.59573 -0.187152
1 -8.77857 -6.5667 -1.20067
1 -9.21557 -5.88253 -1.72855
1 -9.97853 -6.21325 -2.30818
1 -10.1568 -5.5117 -3.07582
1 -10.1964 -5.06173 -2.20595
1 9.76131 -5.61375 -2.11794
1 9.34149 -5.53695 -1.24158
1 5.22476 8.90581 2.20346
1 5.19173 8.89179 1.26733
1 4.92715 8.53875 0.453418
1 5.87834 8.58476 0.299609
1 6.64404 9.15438 0.284283
1 6.81573 10.0691 0.0486704
1 6.18773 -10.0028 -0.160275
1 6.13683 -9.31064 -0.797979
1 7.07482 -9.20071 -0.973076
1 6.80153 -9.94762 -1.40884
1 5.28544 1.52123 6.15548
1 4.50793 1.75794 5.66388
1 5.26097 2.26143 5.29525
1 6.06413 2.28061 4.8361
1 5.85086 2.89639 4.15855
1 6.40625 3.68602 4.40216
1 6.00919 3.8553 3.52387
1 5.71607 4.76053 3.53221
1 5.32295 5.54918 3.12333
1 5.56887 5.20257 2.22971
1 -10.3576 4.87014 -8.54124
1 -9.61094 5.36063 -8.15635
1 -9.1485 5.82237 -7.40354
1 -8.19103 5.81828 -7.24652
1 -7.96086 6.73547 -7.53379
1 -7.37092 7.47562 -7.62688
1 -6.90444 7.62201 -8.48698
1 -6.90626 8.14425 -9.366
1 -6.62238 8.77484 -10.0012
1 -7.53492 8.79367 -10.2971
1 7.15015 0.482855 10.1836
1 7.67336 1.30552 -10.3647
1 7.64017 2.07703 -9.72778
1 7.43828 2.00229 -8.80651
1 7.27674 2.03431 -7.89596
1 8.01427 1.45751 -8.16263
1 8.53003 2.01132 -7.54015
1 8.01549 2.60608 -8.1276
1 7.92871 3.54185 -8.32401
1 8.67596 4.03378 -8.04649
1 6.33308 -3.65972 -2.71954
1 5.64072 -4.2938 -2.77315
1 6.37422 -4.7591 -3.19017
1 5.69269 -4.96027 -3.83815
1 5.44525 -5.22651 -4.74041
1 5.81105 -6.03532 -4.36187
1 5.58495 -6.91451 -4.2304
1 6.22067 -6.92528 -3.48686
1 6.24418 -7.72517 -2.96499
1 5.43759 -7.50003 -3.38384
1 5.61027 -4.66002 5.66069
1 5.83035 -4.66688 4.68808
1 5.00842 -5.10854 4.85172
1 4.75214 -5.43577 5.71548
1 4.61055 -4.8648 6.47856
1 4.43958 -5.70096 7.01756
1 4.08653 -6.22397 6.25951
1 5.01925 -6.47387 6.52491
1 4.81176 -6.6428 7.47476
1 5.38186 -7.38897 7.11333
1 6.86526 7.10669 -5.27461
1 6.44585 7.38372 -4.43613
1 6.60548 6.76241 -3.73799
1 6.3745 7.26519 -2.97159
1 7.3166 7.48072 -3.0821
1 8.29704 7.33605 -3.15775
1 8.07227 8.27928 -3.32591
1 7.17888 8.41194 -3.79488
1 7.43243 7.60563 -4.25246
1 7.75308 6.77255 -4.41097
1 -1.44078 -4.90971 9.28313
1 -1.79703 -4.15269 9.76155
1 -2.06587 -3.53602 9.03247
1 -3.00725 -3.40719 9.18903
1 -3.74127 -4.04082 9.34185
1 -3.75877 -3.37019 9.97744
1 -2.8547 -3.72331 10.2323
1 -2.47355 -4.56986 -10.2421
1 -2.36845 -5.41744 10.0091
1 -2.62652 -4.65365 9.36732
1 2.74561 -7.27884 -2.57844
1 2.83087 -6.68406 -1.84269
1 3.23706 -7.08309 -1.07817
1 4.10058 -7.00903 -0.663259
1 3.7013 -7.78394 -0.380387
1 3.11541 -8.37796 0.0416368
1 3.36025 -9.1374 0.588665
1 3.54934 -9.98379 0.971068
1 4.33331 -9.93755 0.370443
1 5.17925 -10.2133 0.0852284
1 -6.33824 -2.60676 -5.97244
1 -5.94372 -1.93068 -6.59321
1 -6.08859 -1.66514 -7.53519
1 -6.78394 -2.17822 -7.96894
1 -7.47844 -1.76307 -7.50175
1 -6.94653 -2.30684 -6.88707
1 -7.04173 -1.85395 -6.02904
1 -7.83348 -1.51023 -5.67187
1 -8.30997 -2.34057 -5.44827
1 -7.84342 -2.58315 -6.28076
1 6.35696 2.31765 -4.52136
1 5.70028 2.25674 -5.1468
1 5.80636 2.36354 -6.12364
1 5.0677 1.73927 -5.95687
1 4.52453 0.952214 -5.92536
1 4.97441 0.100495 -6.10983
1 4.6834 0.544883 -6.95669
1 3.76892 0.293859 -7.10957
1 3.0434 0.270231 -6.49172
1 3.76075 -0.106407 -5.96065
1 1.68052 8.04183 -2.50436
1 0.931983 8.31876 -2.92734
1 1.57061 8.62916 -3.62943
1 2.34873 8.72905 -3.16503
1 2.35463 8.92321 -4.10717
1 3.23598 8.65025 -3.92422
1 3.41961 7.94163 -4.52556
1 2.48708 7.89821 -4.11742
1 1.98181 7.89255 -4.93972
1 1.41698 7.75111 -4.18125
1 -1.63687 6.40565 9.58988
1 -1.70549 7.31306 9.94144
1 -1.69238 7.95346 -10.0772
1 -1.04275 8.61023 -10.1833
1 -0.209102 8.18212 -10.0951
1 -0.567686 7.30755 -10.0507
1 -0.992442 6.48528 -10.3326
1 -0.221909 6.21452 9.91149
1 -0.679916 6.96144 9.55235
1 0.175591 7.34969 9.73455
1 2.46932 8.46669 -6.97927
1 2.68806 9.42048 -7.07497
1 2.67517 9.02084 -7.93148
1 2.78401 8.82598 -8.88318
1 3.60498 9.33427 -9.12425
1 2.87458 9.95674 -8.92504
1 1.97419 9.87761 -9.10756
1 2.14593 9.3249 -9.90949
1 1.55976 10.0759 -9.98573
1 2.46287 10.3484 -10.0348
1 1.58685 5.96174 -6.66982
1 0.928967 6.17287 -5.97863
1 1.20269 5.25968 -5.85178
1 1.38316 4.96956 -6.7706
1 0.822528 4.71106 -7.48426
1 1.33569 4.5083 -8.2848
1 1.11966 5.44739 -8.34095
1 1.21648 6.34074 -7.97131
1 0.61815 7.00873 -7.83201
1 0.718687 7.80797 -7.31496
1 6.22272 -10.0625 1.68152
1 6.38604 9.75328 1.49129
1 6.0119 10.0563 0.671342
1 5.74522 9.61301 -0.113893
1 6.1834 9.79744 -0.916829
1 5.62725 -10.1996 -1.0833
1 4.64839 -10.2079 -0.843812
1 3.77867 -10.1653 -1.25911
1 3.8032 -9.42389 -0.718672
1 2.90392 -9.62832 -0.714467
1 -6.1134 -6.41749 1.22187
1 -5.49382 -5.69679 1.10995
1 -5.51964 -4.80146 1.45312
1 -5.80103 -4.05942 1.96698
1 -5.776 -3.30289 2.57404
1 -5.46183 -2.71962 3.26168
1 -4.80831 -2.03333 3.42682
1 -5.70457 -1.7323 3.55626
1 -5.20582 -1.8064 4.34752
1 -6.01277 -1.46252 4.90829
1 4.75194 8.32185 7.25583
1 5.17419 8.41503 6.45086
1 5.28489 9.23558 5.97718
1 5.73698 9.6927 6.68289
1 4.97048 9.40948 7.15494
1 4.76125 10.0578 6.49442
1 5.20991 -9.81535 6.71073
1 5.86735 -9.32994 7.20269
1 6.59679 -9.32208 6.5856
1 6.64277 -10.1134 7.12267
1 6.24515 4.19527 0.636895
1 5.43253 4.24218 1.1346
1 5.87658 3.48277 1.43197
1 4.92289 3.3218 1.48487
1 4.51212 4.17747 1.70502
1 4.56071 4.98413 1.18283
1 3.77527 4.9295 1.80108
1 4.41512 4.9704 2.48571
1 5.05882 4.40023 2.87048
1 4.94975 3.71967 3.53114
1 6.81682 -3.83037 1.27293
1 6.77536 -3.65464 0.322563
1 7.44032 -3.31477 -0.317356
1 6.66913 -3.77781 -0.64424
1 7.11454 -4.57854 -0.382731
1 8.06608 -4.3802 -0.606717
1 8.27633 -3.80546 0.203561
1 8.4441 -2.89764 0.350834
1 7.668 -3.21261 0.913395
1 7.96876 -2.41374 1.3317
1 3.49162 -1.89198 -0.926762
1 4.15558 -1.36571 -0.520336
1 5.01725 -0.994412 -0.625645
1 5.17553 -1.11996 -1.49748
1 4.27219 -1.51698 -1.65402
1 4.80608 -2.10318 -0.993264
1 4.61857 -2.80322 -1.73898
1 4.73468 -3.54144 -1.14115
1 4.50422 -3.85761 -2.10852
1 3.83563 -3.87903 -1.38501
1 -9.96318 -7.51768 5.10974
1 -10.1563 -8.36274 4.64866
1 9.77564 -7.96935 4.29857
1 9.56431 -6.98877 4.42913
1 8.78824 -6.67759 3.87754
1 9.031 -6.14942 3.17508
1 8.55863 -6.0211 2.33005
1 7.61798 -6.42488 2.34133
1 6.89112 -6.94211 2.11028
1 6.33817 -7.74611 2.13852
1 6.11156 3.46458 -9.12317
1 6.21758 4.42755 -9.2407
1 6.58853 4.06499 -9.97628
1 7.51057 3.9861 -10.2643
1 7.20096 4.95785 -10.1969
1 6.36421 5.4157 10.3621
1 6.67096 4.77266 9.67666
1 5.91973 4.19638 9.88286
1 5.77665 3.67053 9.08742
1 5.51185 3.30523 8.26513
1 -7.98174 8.58051 -9.20281
1 -7.89598 8.09164 -8.37564
1 -8.38577 7.27545 -8.52989
1 -9.12793 7.91094 -8.3731
1 -8.80358 8.7234 -8.60407
1 -8.28701 9.46324 -8.36579
1 -8.62369 9.68723 -7.54205
1 -8.50938 -10.1058 -7.67896
1 -8.26992 -10.2001 -6.76139
1 -9.19743 -10.2854 -6.94722
1 -9.63031 -8.3252 -4.86659
1 -9.80237 -9.22658 -5.17856
1 10.0664 -9.16292 -5.47081
1 9.16481 -9.05927 -5.76276
1 8.24024 -8.94615 -5.96559
1 8.83132 -8.19177 -6.16406
1 8.10948 -8.25965 -6.78746
1 7.55061 -8.52992 -7.57851
1 7.16859 -7.68705 -7.93197
1 7.91657 -7.92891 -8.41463
1 4.53249 -4.87377 7.59272
1 4.1557 -5.60775 8.01185
1 3.59042 -4.83091 8.1098
1 3.07772 -5.58681 8.46589
1 2.23795 -5.14553 8.42149
1 1.42055 -4.72707 8.10965
1 1.51816 -4.12258 7.30349
1 2.0248 -3.39406 7.67327
1 2.41385 -4.1512 7.9707
1 2.76469 -3.5616 8.61345
1 8.81208 -8.33744 -5.17819
1 7.95029 -8.09622 -5.31463
1 7.73684 -8.27748 -4.37547
1 6.94564 -8.14173 -3.96918
1 7.1549 -7.26873 -4.33047
1 7.66489 -7.53677 -3.53371
1 7.92207 -6.61733 -3.70046
1 8.0697 -5.86748 -3.03349
1 8.30715 -5.01875 -3.27573
1 7.56538 -4.76884 -3.75869
1 -9.50375 5.43597 0.238536
1 -9.71928 4.86359 -0.513993
1 -10.0278 5.7178 -0.555444
1 10.0417 5.10481 -0.161503
1 9.17421 5.39715 0.129083
1 8.78251 6.06809 -0.47797
1 8.41772 6.93701 -0.59066
1 8.15522 6.60749 0.319555
1 8.52823 6.87275 1.13463
1 8.4934 6.30094 1.86702
1 3.69043 -1.36521 0.692743
1 3.45283 -2.05599 0.0601166
1 4.00552 -2.73741 -0.246567
1 3.6785 -2.88353 -1.17329
1 2.83367 -2.58683 -1.44882
1 2.63757 -2.33044 -0.538714
1 3.06818 -3.11791 -0.193412
1 2.37003 -3.74865 -0.141063
1 3.12052 -4.26115 -0.547058
1 2.69208 -4.70756 -1.28491
1 6.82752 8.80663 -9.05872
1 6.64709 9.49332 -9.74095
1 7.4155 8.85762 -9.9631
1 7.82005 8.52834 -9.20371
1 8.04982 7.69452 -9.62719
1 8.97237 7.63822 -9.52689
1 9.81304 7.60533 -10.0546
1 9.40865 6.72335 -10.0925
1 8.46747 6.67766 -10.0342
1 8.74084 7.46935 10.1904
1 9.70556 1.67665 -2.2975
1 9.42121 1.07295 -2.94792
1 8.47937 1.08889 -2.8879
1 8.75853 1.99087 -2.50837
1 8.66023 1.85904 -1.49809
1 9.51736 1.60778 -1.17822
1 10.2919 2.02356 -0.77848
1 -9.93752 1.66814 -0.0546781
1 -9.78803 2.16445 0.786004
1 -9.84493 2.77583 0.0955348
1 -0.471932 9.09559 -9.41296
1 -1.21124 9.74673 -9.64996
1 -1.90642 9.94829 -8.97582
1 -2.63006 9.82207 -8.39469
1 -3.45706 10.005 -7.79149
1 -3.64956 -10.0115 -8.36026
1 -2.98404 -9.77493 -7.78367
1 -3.01143 -9.04573 -8.36022
1 -2.53604 -8.53981 -8.99647
1 -2.44693 -8.39943 -9.92413
1 4.47021 -0.994237 1.50585
1 5.47037 -0.924329 1.52882
1 5.17625 -1.86148 1.34239
1 6.12352 -1.75916 1.36462
1 5.95322 -1.71723 2.34452
1 5.15663 -1.2474 2.55869
1 4.50958 -1.90483 2.80818
1 4.23732 -2.78953 2.5984
1 4.67972 -3.3207 1.9652
1 3.87982 -3.88447 1.97125
1 -7.44857 -2.44551 9.72512
1 -6.87155 -2.37341 -10.2913
1 -6.43217 -2.72089 9.64584
1 -5.87636 -3.45682 9.40828
1 -4.90042 -3.42691 9.60973
1 -5.26765 -4.12343 9.07483
1 -6.09134 -4.51594 8.69892
1 -5.57205 -5.27122 9.03104
1 -6.265 -5.82543 8.67003
1 -6.34896 -5.93503 7.7168
1 -4.54515 -6.79097 -7.02392
1 -4.98155 -7.393 -7.63312
1 -5.12795 -6.50125 -7.91885
1 -5.04973 -7.08523 -8.71111
1 -5.69583 -6.41184 -8.86335
1 -6.4278 -6.95177 -9.14196
1 -6.63014 -7.18973 -10.0485
1 -7.51285 -7.22165 -10.3583
1 -7.75089 -7.04954 9.48952
1 -7.01525 -7.69708 9.34292
1 -0.943494 -3.65467 7.32895
1 -0.646188 -2.80823 7.48825
1 -0.64549 -3.31428 8.25336
1 -1.55227 -3.02455 8.22107
1 -2.06316 -3.02905 7.45661
1 -2.63286 -2.46976 8.00028
1 -2.25955 -1.92644 7.3241
1 -2.25614 -2.39869 6.52137
1 -1.37428 -2.30393 6.92498
1 -0.762822 -1.66653 7.249
1 -3.30508 8.10811 2.7284
1 -2.66668 8.79246 2.50929
1 -3.42633 8.88739 1.85129
1 -4.22406 8.37806 1.57086
1 -3.64559 7.92535 0.934661
1 -4.56208 8.10155 0.652464
1 -4.67777 7.20651 0.896297
1 -5.19013 7.02434 0.117355
1 -5.79329 6.33915 -0.161482
1 -6.24681 6.56037 0.703404
1 8.79786 -7.29905 -8.4307
1 8.08781 -7.10522 -9.12419
1 8.54598 -6.2729 -9.08328
1 9.24406 -6.0212 -9.65395
1 9.74491 -6.58938 -10.3224
1 -10.2413 -6.01009 -10.2468
1 10.0015 -5.21927 -9.89761
1 10.3606 -4.4037 -9.64892
1 10.025 -4.18564 -8.74787
1 -10.2255 -5.06457 -8.60358
1 -8.18916 -8.58501 1.16366
1 -7.86386 -8.58754 0.253955
1 -7.02264 -8.3482 -0.148598
1 -6.30198 -8.01769 -0.800801
1 -5.38542 -7.93144 -0.441499
1 -4.48197 -7.67696 -0.293759
1 -3.78205 -7.3995 0.328405
1 -3.78412 -6.92383 1.18427
1 -4.19857 -7.77914 1.20141
1 -4.44705 -7.80338 2.10221
1 -5.63523 -4.94902 -4.12454
1 -5.59135 -5.90342 -4.31982
1 -6.4565 -5.55639 -4.11972
1 -6.51381 -4.95043 -4.7879
1 -5.9058 -4.45606 -5.39629
1 -5.65329 -4.05806 -4.50639
1 -5.3653 -3.88283 -3.65695
1 -6.11877 -3.32885 -3.96147
1 -6.6996 -3.68808 -4.65107
1 -6.44485 -3.48494 -5.58464
1 -3.13485 6.4365 -10.2968
1 -3.30075 7.24931 -9.7851
1 -3.76314 7.29177 10.1245
1 -4.51933 6.64624 10.2655
1 -4.34259 7.01162 -9.58829
1 -3.96973 6.11357 -9.45621
1 -4.49542 5.60855 -8.87044
1 -4.7002 6.08897 -8.06257
1 -4.86237 5.20575 -7.68614
1 -3.92478 5.4302 -7.60475
1 -8.60914 -2.37081 4.66526
1 -7.99602 -3.00232 5.02128
1 -7.21603 -3.54242 4.60307
1 -6.9795 -2.64162 4.90164
1 -6.60313 -2.04142 5.47849
1 -5.77849 -1.73088 6.11188
1 -5.2059 -2.01979 6.83254
1 -5.03983 -1.13354 7.11328
1 -5.08279 -1.64906 7.88055
1 -5.99477 -1.55225 7.51883
1 -6.74247 -6.66359 9.65439
1 -6.36088 -5.77452 9.79242
1 -5.42634 -5.71955 9.89098
1 -5.05295 -4.88014 10.1418
1 -4.53024 -4.81988 -9.80271
1 -4.34759 -3.92195 -9.96483
1 -3.85994 -4.00797 -9.15546
1 -3.97426 -3.07035 -9.00007
1 -4.76133 -2.64978 -8.59359
1 -5.02254 -3.054 -9.374
1 -0.735331 4.39866 9.15373
1 -0.730731 4.41169 8.19419
1 -0.799631 3.47659 7.80648
1 -0.205563 2.7205 7.88013
1 -0.489631 2.47645 8.74731
1 -0.381896 2.12033 9.58157
1 0.284504 2.84962 9.83099
1 0.694221 3.64713 9.54844
1 0.664728 2.97456 8.83984
1 0.818648 2.63437 7.93509
1 -0.635553 5.66906 3.15155
1 0.251607 5.29552 3.01628
1 0.579753 6.10898 3.3595
1 1.02531 5.32488 3.61029
1 1.64916 5.33017 2.85134
1 1.04419 5.09421 2.12963
1 0.285717 5.48526 1.58161
1 0.313129 4.94451 0.854204
1 0.293422 5.43268 -0.0722664
1 -0.500255 4.93091 0.149011
1 -3.48026 -0.31124 10.145
1 -4.05541 -0.406893 -9.78019
1 -3.53497 0.351268 -9.54563
1 -2.75761 -0.254926 -9.60965
1 -2.8006 -1.15566 -9.43586
1 -2.87052 -1.28476 -10.3336
1 -3.63253 -1.50705 9.83337
1 -3.32486 -1.85198 9.02317
1 -2.78907 -2.38315 9.65631
1 -2.0001 -2.47436 9.0674
1 7.74513 9.406 2.89481
1 8.13491 8.55873 2.95827
1 7.49387 8.42055 2.26494
1 7.12606 7.80042 1.61031
1 7.33322 8.27353 0.794223
1 8.1052 7.8651 1.14633
1 9.05755 7.99458 1.16701
1 8.87225 7.51204 0.360816
1 9.48722 6.7862 0.540442
1 9.81233 6.30457 -0.269619
1 7.86221 -6.49737 4.50821
1 8.72554 -6.39088 4.93841
1 8.18832 -6.25884 5.73866
1 8.10954 -7.28616 6.08685
1 7.56674 -6.9352 6.86822
1 6.89501 -6.44932 7.29543
1 6.96952 -6.23725 6.37365
1 6.66587 -5.33865 6.39279
1 6.60773 -4.99297 5.45492
1 6.90439 -4.35755 6.10885
1 7.8104 7.86222 6.06349
1 7.78635 7.86531 5.08644
1 7.97051 7.21698 4.35116
1 8.83338 6.93195 4.46249
1 9.59612 6.62779 3.87099
1 10.2992 6.87313 4.46045
1 -10.227 7.73285 4.80297
1 10.328 7.23379 5.54755
1 9.51687 7.45222 4.96367
1 8.76133 7.5834 5.50723
1 0.812115 4.11362 -9.12431
1 1.56031 4.65535 -9.2889
1 1.5922 5.14013 -10.1473
1 1.682 4.25917 10.1749
1 0.821974 4.41087 -10.1534
1 -0.0745746 4.34098 10.3052
1 -0.321478 5.14029 9.79904
1 -1.20013 5.51661 9.92049
1 -0.690914 5.54753 -10.0456
1 0.177358 5.2157 -9.90718
1 2.58151 1.19459 8.21886
1 2.5172 0.461228 8.79322
1 2.46214 0.104757 7.91097
1 2.66766 0.710687 7.13851
1 3.37368 1.15872 7.60902
1 2.92501 2.01175 7.60744
1 2.08952 1.6708 7.3577
1 1.43139 1.65575 8.05267
1 1.90136 2.35616 8.49626
1 1.57738 2.81742 9.27719
1 -9.83959 6.65816 -6.7619
1 -8.91579 6.81492 -6.75436
1 -8.1312 7.41798 -6.75179
1 -8.45707 7.90207 -7.47122
1 -9.42211 7.65584 -7.34584
1 -9.87722 8.39522 -7.80113
1 -10.2665 7.64692 -8.18842
1 9.89759 8.2522 -7.6932
1 9.46992 8.70361 -8.42878
1 8.76134 8.65559 -9.10181
1 6.6311 10.003 6.07015
1 6.21799 -9.96317 5.80793
1 5.38267 10.3518 5.70691
1 5.87589 9.83626 5.08351
1 6.44072 9.92103 4.27308
1 6.58701 9.32885 3.50733
1 5.80341 9.11735 4.03162
1 4.98242 9.60643 3.8312
1 4.53238 -10.358 4.14968
1 3.84184 -9.94845 3.60581
1 -9.15217 -2.32724 -1.14598
1 -9.47066 -3.13978 -0.784469
1 -8.99857 -3.7965 -1.25677
1 -8.17857 -3.32392 -1.19918
1 -8.26864 -2.85299 -0.359795
1 -7.76579 -3.64675 -0.196558
1 -7.8757 -4.45956 -0.716902
1 -7.93778 -4.77443 -1.60457
1 -8.73456 -4.95536 -1.10624
1 -9.64857 -4.57009 -1.17572
1 -8.10948 -4.21553 -6.66276
1 -7.75506 -3.36945 -6.91792
1 -7.08032 -3.88173 -7.37916
1 -6.73604 -3.29854 -6.6404
1 -5.8709 -2.96787 -6.88221
1 -5.01568 -2.71173 -7.25585
1 -5.1938 -2.00895 -7.89325
1 -5.31595 -1.09533 -8.10074
1 -5.51239 -0.223734 -8.61269
1 -6.14628 -0.232572 -7.83823
1 -3.41014 -0.481832 -3.53274
1 -3.91009 -0.865827 -4.26312
1 -4.79118 -0.529858 -4.48286
1 -5.00465 0.29337 -4.08251
1 -5.21001 0.239488 -4.99163
1 -6.03635 -0.128458 -4.9505
1 -6.78611 0.128785 -4.40811
1 -6.33458 0.781039 -3.88308
1 -6.98014 1.18931 -4.42018
1 -6.17036 0.998586 -4.89882
1 -5.00324 2.28022 -2.78693
1 -5.48401 1.5697 -2.36882
1 -5.75229 0.697934 -2.53962
1 -5.4465 0.714844 -1.62241
1 -6.08271 0.781321 -0.89485
1 -7.00973 0.827229 -0.817642
1 -8.02863 0.825911 -0.805291
1 -8.52155 -0.0368222 -0.9234
1 -7.76152 -0.0313473 -1.4853
1 -8.53059 -0.273375 -1.99985
1 -3.17308 -8.31266 -6.87312
1 -3.60885 -8.79024 -7.59497
1 -3.35503 -8.02026 -8.11419
1 -4.0513 -7.91214 -7.46558
1 -4.54791 -7.95228 -8.38677
1 -3.95426 -8.51333 -8.86031
1 -4.55571 -9.2291 -9.00677
1 -4.60925 -9.05906 -8.06094
1 -5.15507 -8.70472 -7.29529
1 -5.23547 -9.67476 -7.42884
1 -9.34009 2.94674 -6.43864
1 -9.07464 3.91265 -6.62509
1 -9.59372 4.57596 -7.07655
1 -9.41197 4.04671 -7.85595
1 -8.50873 4.20962 -7.65091
1 -8.15132 4.62311 -6.82894
1 -7.39682 5.19378 -6.59818
1 -7.65048 4.67203 -5.77984
1 -7.18748 5.53703 -5.66948
1 -6.40651 5.52079 -5.1542
1 -1.36261 -4.34447 -6.07664
1 -0.534627 -4.14911 -6.57713
1 0.031307 -3.68837 -6.00267
1 0.440787 -2.8473 -6.2052
1 0.745922 -2.90207 -5.24793
1 0.799622 -2.42207 -4.42606
1 1.6033 -2.82985 -4.52031
1 1.47006 -2.13655 -5.15689
1 1.94771 -1.59752 -5.79273
1 2.70788 -1.45591 -5.16591
1 8.73916 -9.08307 1.89318
1 8.17159 -9.61236 2.47432
1 8.25718 -10.3395 3.05778
1 8.49136 -9.48491 3.59159
1 8.41842 -8.6869 4.12618
1 8.78233 -7.92043 3.65722
1 8.3107 -8.50833 3.03113
1 8.03151 -8.28796 2.14927
1 7.46548 -7.61135 1.67897
1 7.60831 -8.21641 0.960768
1 5.54385 -3.34711 -3.36093
1 5.08398 -3.12712 -2.55873
1 5.5424 -3.56781 -1.85003
1 6.16402 -4.06406 -1.36518
1 5.55725 -4.09463 -0.592957
1 5.60908 -3.49251 0.140352
1 4.98865 -2.99791 -0.31313
1 5.65937 -3.08935 -0.944018
1 5.81852 -2.15572 -0.677089
1 6.38656 -2.77594 -0.222415
1 -5.75557 -0.0503872 -3.32827
1 -6.69264 0.0502813 -3.17301
1 -6.44938 -0.639725 -3.82914
1 -7.22089 -0.731564 -4.36201
1 -7.11464 -1.46055 -4.99543
1 -6.25056 -1.22274 -5.2381
1 -6.17558 -1.06939 -6.17221
1 -6.78046 -1.17699 -6.88826
1 -7.70244 -1.16196 -6.66488
1 -8.48502 -1.7231 -6.66984
1 -8.63697 7.21474 -3.62838
1 -9.27771 6.76018 -3.07942
1 -9.75451 6.04419 -3.59689
1 -9.5609 6.78992 -4.29301
1 -9.71503 7.61774 -3.79695
1 -9.8641 7.67906 -4.72428
1 -9.36824 7.97334 -5.43713
1 -8.98575 7.85815 -6.37893
1 -8.95662 8.68966 -6.94657
1 -9.66928 9.26796 -7.1323
1 -6.1973 -9.14372 3.9043
1 -5.62742 -8.44163 3.59259
1 -5.13955 -7.7894 3.10375
1 -4.26458 -8.17842 2.99598
1 -3.5127 -8.22763 2.40217
1 -3.47277 -7.24191 2.2125
1 -3.41169 -6.27265 2.06173
1 -4.33386 -6.26489 2.03054
1 -5.23361 -5.92519 2.18471
1 -6.01823 -5.28449 2.30184
1 -7.00279 2.97214 0.139027
1 -7.30874 2.30259 0.687533
1 -7.58106 1.60301 0.155601
1 -8.1648 0.933805 0.543442
1 -7.46243 0.527929 0.0707155
1 -6.98016 0.960523 0.824343
1 -6.3625 1.00413 0.0444589
1 -5.47127 1.37682 0.089216
1 -4.86862 0.625224 -0.202153
1 -5.52016 -0.0227182 -0.556548
1 -1.89031 -5.10067 5.93361
1 -1.73454 -4.31225 6.50644
1 -1.57361 -4.50055 7.41976
1 -1.68535 -5.33585 7.91753
1 -2.25864 -4.80458 8.34692
1 -2.87599 -4.87158 7.65706
1 -2.23508 -5.13505 7.01031
1 -2.78827 -4.70653 6.37703
1 -3.32112 -4.05031 6.72317
1 -2.59282 -3.89936 7.26192
1 7.24989 -5.78547 5.26629
1 7.67253 -5.30468 6.03945
1 7.85354 -5.94493 6.72657
1 8.54289 -6.6409 6.80413
1 8.39316 -7.40431 7.33927
1 9.189 -7.8215 7.72332
1 9.06554 -8.54559 7.1262
1 8.37226 -9.18458 6.84902
1 8.39349 -8.42451 6.29063
1 8.13362 -9.06909 5.60385
1 4.59205 9.29862 -7.48888
1 5.17242 8.48507 -7.66888
1 5.9319 7.98792 -8.05004
1 6.45203 7.98504 -7.14213
1 6.83064 7.12951 -7.41634
1 7.07184 7.90454 -8.00726
1 7.40029 7.09587 -8.37311
1 8.20103 6.8594 -8.96209
1 8.55389 7.71634 -8.58184
1 9.52012 7.50295 -8.59506
1 -5.98653 6.46846 -4.95367
1 -5.62536 7.37051 -4.84465
1 -5.95441 8.13193 -4.3397
1 -6.68174 7.49687 -4.27213
1 -6.91737 7.64219 -5.2015
1 -7.37375 7.43133 -6.04852
1 -7.16716 6.86286 -6.80386
1 -7.95665 6.38807 -6.35849
1 -7.66403 6.51679 -5.45708
1 -6.79793 6.50165 -5.77783
1 -1.86072 -8.28877 -5.21298
1 -2.19381 -8.49476 -4.34734
1 -2.91817 -8.26192 -4.86841
1 -2.50469 -7.44699 -4.84622
1 -2.51005 -6.59567 -5.34904
1 -3.27558 -6.61692 -5.92737
1 -3.63377 -7.32355 -6.47062
1 -2.79673 -7.09694 -6.89772
1 -2.04963 -6.49913 -6.77768
1 -1.32321 -6.06742 -7.21719
1 -8.62048 -6.34184 4.58877
1 -9.29 -6.95355 4.62489
1 -8.75572 -7.59953 5.14379
1 -9.24651 -8.16048 5.73942
1 -8.95624 -8.77912 5.05832
1 -8.50502 -8.92669 4.23524
1 -8.4665 -9.71907 4.71555
1 -8.06866 -10.0218 3.91248
1 -8.36809 9.94997 4.32276
1 -8.904 10.1983 5.06783
1 -4.99414 5.52744 1.62992
1 -4.41786 6.29946 1.4104
1 -3.76075 6.66188 0.866179
1 -3.33958 6.56432 -0.022731
1 -2.70555 6.26523 0.645226
1 -2.8366 7.17998 0.937982
1 -2.88454 7.5797 0.0724197
1 -1.99724 7.23725 0.000604719
1 -1.71125 6.68519 0.67187
1 -1.54861 6.04527 1.358
1 -10.3252 2.46835 -1.79098
1 -10.2721 3.17491 -1.14867
1 -9.48067 2.572 -1.09803
1 -9.22133 2.86078 -1.96357
1 -8.80765 3.47139 -1.29241
1 -9.41291 3.66468 -0.576125
1 -10.2842 3.75606 -0.148071
1 -9.87435 4.45589 0.374005
1 -9.15216 4.65543 1.0335
1 -9.44933 4.74887 1.93043
1 3.57378 -2.00898 2.35341
1 3.17196 -2.06835 1.4905
1 2.71514 -2.43779 0.732643
1 1.8787 -2.37962 0.250443
1 2.04173 -3.2646 0.699378
1 2.76183 -3.74222 1.11499
1 3.11455 -4.53578 1.46969
1 3.16056 -5.47286 1.373
1 3.67909 -5.81729 2.02662
1 4.22237 -6.14222 1.33564
1 -3.31865 5.83331 1.6496
1 -3.4136 6.77033 1.90382
1 -4.19103 7.32336 1.93682
1 -5.13833 7.45529 1.96251
1 -5.46276 6.76066 1.41916
1 -6.36447 6.85109 1.74954
1 -7.09417 7.43689 1.93987
1 -7.40094 6.90758 2.75459
1 -6.95665 7.29871 3.54165
1 -7.34923 8.12756 3.28984
1 -0.997247 -1.63693 2.6095
1 -0.943737 -2.57126 2.35508
1 0.0099594 -2.3068 2.2669
1 -0.472012 -1.86709 1.58873
1 -1.01371 -2.70734 1.24638
1 -0.0839801 -2.95817 1.50545
1 0.515895 -3.26644 0.864379
1 0.265669 -4.06841 1.26474
1 -0.71951 -3.90515 1.40831
1 -1.30744 -4.13211 0.673928
1 -8.46099 -7.06797 6.28305
1 -9.17769 -6.61892 6.72506
1 -8.87804 -7.07545 7.54966
1 -9.49094 -7.68695 6.99107
1 -9.49294 -8.55649 6.66511
1 -9.73988 -9.2055 7.34631
1 -9.61929 -8.47938 7.95585
1 10.1741 -8.25719 8.0511